rutile TiO2                             
           1
     9.204858    0.000000    0.000000
     0.000000    9.204858    0.000000
     0.000000    0.000000   11.843996
   Ti   O 
  32  64
Direct configuration=     1
   0.25000000  0.25000000  0.12500000
   0.75000000  0.25000000  0.12500000
   0.25000000  0.75000000  0.12500000
   0.75000000  0.75000000  0.12500000
   0.25000000  0.25000000  0.37500000
   0.75000000  0.25000000  0.37500000
   0.25000000  0.75000000  0.37500000
   0.75000000  0.75000000  0.37500000
   0.25000000  0.25000000  0.62500000
   0.75000000  0.25000000  0.62500000
   0.25000000  0.75000000  0.62500000
   0.75000000  0.75000000  0.62500000
   0.25000000  0.25000000  0.87500000
   0.75000000  0.25000000  0.87500000
   0.25000000  0.75000000  0.87500000
   0.75000000  0.75000000  0.87500000
   0.00000000  0.00000000  0.00000000
   0.50000000  0.00000000  0.00000000
   0.00000000  0.50000000  0.00000000
   0.50000000  0.50000000  0.00000000
   0.00000000  0.00000000  0.25000000
   0.50000000  0.00000000  0.25000000
   0.00000000  0.50000000  0.25000000
   0.50000000  0.50000000  0.25000000
   0.00000000  0.00000000  0.50000000
   0.50000000  0.00000000  0.50000000
   0.00000000  0.50000000  0.50000000
   0.50000000  0.50000000  0.50000000
   0.00000000  0.00000000  0.75000000
   0.50000000  0.00000000  0.75000000
   0.00000000  0.50000000  0.75000000
   0.50000000  0.50000000  0.75000000
   0.09771054  0.40228946  0.12500000
   0.59771054  0.40228946  0.12500000
   0.09771054  0.90228946  0.12500000
   0.59771054  0.90228946  0.12500000
   0.09771054  0.40228946  0.37500000
   0.59771054  0.40228946  0.37500000
   0.09771054  0.90228946  0.37500000
   0.59771054  0.90228946  0.37500000
   0.09771054  0.40228946  0.62500000
   0.59771054  0.40228946  0.62500000
   0.09771054  0.90228946  0.62500000
   0.59771054  0.90228946  0.62500000
   0.09771054  0.40228946  0.87500000
   0.59771054  0.40228946  0.87500000
   0.09771054  0.90228946  0.87500000
   0.59771054  0.90228946  0.87500000
   0.40228946  0.09771054  0.12500000
   0.90228946  0.09771054  0.12500000
   0.40228946  0.59771054  0.12500000
   0.90228946  0.59771054  0.12500000
   0.40228946  0.09771054  0.37500000
   0.90228946  0.09771054  0.37500000
   0.40228946  0.59771054  0.37500000
   0.90228946  0.59771054  0.37500000
   0.40228946  0.09771054  0.62500000
   0.90228946  0.09771054  0.62500000
   0.40228946  0.59771054  0.62500000
   0.90228946  0.59771054  0.62500000
   0.40228946  0.09771054  0.87500000
   0.90228946  0.09771054  0.87500000
   0.40228946  0.59771054  0.87500000
   0.90228946  0.59771054  0.87500000
   0.15228946  0.15228946  0.00000000
   0.65228946  0.15228946  0.00000000
   0.15228946  0.65228946  0.00000000
   0.65228946  0.65228946  0.00000000
   0.15228946  0.15228946  0.25000000
   0.65228946  0.15228946  0.25000000
   0.15228946  0.65228946  0.25000000
   0.65228946  0.65228946  0.25000000
   0.15228946  0.15228946  0.50000000
   0.65228946  0.15228946  0.50000000
   0.15228946  0.65228946  0.50000000
   0.65228946  0.65228946  0.50000000
   0.15228946  0.15228946  0.75000000
   0.65228946  0.15228946  0.75000000
   0.15228946  0.65228946  0.75000000
   0.65228946  0.65228946  0.75000000
   0.34771054  0.34771054  0.00000000
   0.84771054  0.34771054  0.00000000
   0.34771054  0.84771054  0.00000000
   0.84771054  0.84771054  0.00000000
   0.34771054  0.34771054  0.25000000
   0.84771054  0.34771054  0.25000000
   0.34771054  0.84771054  0.25000000
   0.84771054  0.84771054  0.25000000
   0.34771054  0.34771054  0.50000000
   0.84771054  0.34771054  0.50000000
   0.34771054  0.84771054  0.50000000
   0.84771054  0.84771054  0.50000000
   0.34771054  0.34771054  0.75000000
   0.84771054  0.34771054  0.75000000
   0.34771054  0.84771054  0.75000000
   0.84771054  0.84771054  0.75000000
Direct configuration=     2
   0.24987955  0.24996946  0.12498540
   0.74960685  0.24979616  0.12499479
   0.24986798  0.74990415  0.12491627
   0.75022959  0.74998064  0.12503002
   0.25008514  0.25013815  0.37498085
   0.74975584  0.24993746  0.37517503
   0.24999538  0.74995247  0.37490192
   0.74991425  0.74986105  0.37495659
   0.24975941  0.25003874  0.62500180
   0.75002500  0.25003644  0.62495165
   0.25042753  0.75002846  0.62487982
   0.74990374  0.74992306  0.62489057
   0.25016096  0.25004655  0.87487455
   0.74999740  0.25005359  0.87490107
   0.24991348  0.75012008  0.87495324
   0.74995520  0.75002225  0.87503115
  -0.00001232  0.00012442 -0.00000579
   0.50014043 -0.00001021  0.00009146
   0.00014126  0.49978808 -0.00006573
   0.50012408  0.50009288 -0.00009791
  -0.00005060  0.00002299  0.24988963
   0.49990646 -0.00010877  0.24991403
  -0.00003917  0.49989715  0.25002434
   0.50019349  0.49998019  0.25010117
   0.00003659 -0.00004787  0.49998074
   0.49969871  0.00009924  0.49998713
  -0.00010037  0.50008075  0.49992259
   0.50005541  0.49981161  0.49992801
   0.00021775  0.00020167  0.75011992
   0.50016310 -0.00009778  0.75000653
   0.00008897  0.50011602  0.75015916
   0.50000418  0.50007182  0.74997209
   0.09740127  0.40244996  0.12485786
   0.59762322  0.40204269  0.12501153
   0.09785219  0.90237402  0.12513847
   0.59746216  0.90226406  0.12497650
   0.09781450  0.40214516  0.37493100
   0.59760885  0.40196880  0.37497927
   0.09803797  0.90187114  0.37505503
   0.59748593  0.90219585  0.37475681
   0.09800590  0.40214178  0.62481150
   0.59802145  0.40229236  0.62499833
   0.09764822  0.90251289  0.62503301
   0.59719570  0.90228145  0.62525287
   0.09741309  0.40242708  0.87493362
   0.59777987  0.40253463  0.87489782
   0.09772350  0.90236411  0.87501985
   0.59759205  0.90238196  0.87518057
   0.40241608  0.09779253  0.12532853
   0.90248597  0.09777505  0.12525311
   0.40227502  0.59750695  0.12514771
   0.90218250  0.59742445  0.12514938
   0.40224013  0.09723505  0.37483058
   0.90219198  0.09802809  0.37495088
   0.40241125  0.59757477  0.37500233
   0.90264100  0.59809351  0.37497197
   0.40227548  0.09802618  0.62500722
   0.90236251  0.09787248  0.62520416
   0.40247238  0.59767588  0.62499751
   0.90194744  0.59752420  0.62500450
   0.40247639  0.09760784  0.87517806
   0.90223532  0.09777207  0.87489415
   0.40241175  0.59773059  0.87520320
   0.90250304  0.59804877  0.87505922
   0.15243267  0.15231139  0.00017363
   0.65236079  0.15230289 -0.00007570
   0.15185129  0.65208647  0.00004580
   0.65265451  0.65242792 -0.00026567
   0.15251007  0.15250325  0.25013623
   0.65194562  0.15227542  0.24994138
   0.15214194  0.65219392  0.25022158
   0.65237454  0.65253313  0.25002599
   0.15168405  0.15226085  0.50009350
   0.65215847  0.15233333  0.50013229
   0.15244899  0.65197420  0.50010939
   0.65243803  0.65229701  0.50033005
   0.15213488  0.15246383  0.75000580
   0.65231404  0.15241972  0.74980411
   0.15279163  0.65237001  0.74981493
   0.65177483  0.65234845  0.74994188
   0.34781265  0.34771033  0.00031128
   0.84743559  0.34772955  0.00016815
   0.34751492  0.84792863 -0.00011549
   0.84773726  0.84759533  0.00003619
   0.34809829  0.34737196  0.24983943
   0.84759698  0.34802228  0.25011839
   0.34785026  0.84798892  0.25014830
   0.84803291  0.84790915  0.24985983
   0.34764887  0.34783031  0.49982990
   0.84789954  0.34797030  0.49999034
   0.34782096  0.84767817  0.50025420
   0.84752320  0.84752999  0.49994466
   0.34795830  0.34743360  0.75017389
   0.84750270  0.34778939  0.75003614
   0.34766861  0.84742663  0.74993742
   0.84755305  0.84755327  0.74995451
Direct configuration=     3
   0.24975926  0.24993890  0.12497089
   0.74921379  0.24959257  0.12498972
   0.24973609  0.74980829  0.12483263
   0.75045921  0.74996125  0.12505998
   0.25017022  0.25027623  0.37496159
   0.74951197  0.24987486  0.37534981
   0.24999066  0.74990496  0.37480385
   0.74982848  0.74972232  0.37491327
   0.24951883  0.25007751  0.62500345
   0.75005011  0.25007287  0.62490334
   0.25085481  0.75005689  0.62475962
   0.74980762  0.74984622  0.62478134
   0.25032216  0.25009302  0.87474930
   0.74999481  0.25010731  0.87480219
   0.24982703  0.75024008  0.87490643
   0.74991048  0.75004450  0.87506207
  -0.00002466  0.00024884 -0.00001152
   0.50028073 -0.00002037  0.00018300
   0.00028227  0.49957617 -0.00013127
   0.50024812  0.50018571 -0.00019573
  -0.00010113  0.00004606  0.24977946
   0.49981292 -0.00021754  0.24982810
  -0.00007849  0.49979416  0.25004863
   0.50038683  0.49996030  0.25020216
   0.00007315 -0.00009574  0.49996153
   0.49939743  0.00019847  0.49997416
  -0.00020064  0.50016152  0.49984525
   0.50011078  0.49962322  0.49985613
   0.00043524  0.00040310  0.75023956
   0.50032620 -0.00019549  0.75001304
   0.00017784  0.50023218  0.75031813
   0.50000849  0.50014372  0.74994414
   0.09709285  0.40260981  0.12471599
   0.59753596  0.40179658  0.12502305
   0.09799369  0.90245861  0.12527656
   0.59721457  0.90223807  0.12495277
   0.09791824  0.40200113  0.37486216
   0.59750715  0.40164886  0.37495876
   0.09836436  0.90145397  0.37511017
   0.59726212  0.90210197  0.37451449
   0.09830053  0.40199487  0.62462363
   0.59833153  0.40229561  0.62499662
   0.09758606  0.90273592  0.62506598
   0.59668153  0.90227335  0.62550532
   0.09711644  0.40256396  0.87486721
   0.59784923  0.40277933  0.87479591
   0.09773641  0.90243878  0.87503993
   0.59747383  0.90247434  0.87536084
   0.40254234  0.09787455  0.12565612
   0.90268239  0.09783940  0.12550570
   0.40226051  0.59730399  0.12529522
   0.90207524  0.59713913  0.12529849
   0.40219025  0.09676059  0.37466200
   0.90209506  0.09834463  0.37490182
   0.40253327  0.59743907  0.37500469
   0.90299212  0.59847614  0.37494405
   0.40226151  0.09834131  0.62501447
   0.90243555  0.09803405  0.62540799
   0.40265519  0.59764093  0.62499485
   0.90160626  0.59733772  0.62500922
   0.40266241  0.09750582  0.87535582
   0.90218146  0.09783339  0.87478881
   0.40253363  0.59775066  0.87540630
   0.90271653  0.59838644  0.87511797
   0.15257552  0.15233315  0.00034672
   0.65243207  0.15231619 -0.00015133
   0.15141443  0.65188458  0.00009170
   0.65301893  0.65256591 -0.00053065
   0.15273021  0.15271664  0.25027239
   0.65160282  0.15226195  0.24988303
   0.15199540  0.65209909  0.25044267
   0.65245953  0.65277635  0.25005195
   0.15108007  0.15223290  0.50018685
   0.65202776  0.15237723  0.50026441
   0.15260884  0.65165953  0.50021865
   0.65258616  0.65230427  0.50065910
   0.15198073  0.15263832  0.75001193
   0.65233843  0.15254975  0.74960866
   0.15329279  0.65244987  0.74963027
   0.65126094  0.65240777  0.74988403
   0.34791444  0.34771008  0.00062171
   0.84716077  0.34774839  0.00033588
   0.34731891  0.84814592 -0.00023057
   0.84776434  0.84748077  0.00007250
   0.34848559  0.34703385  0.24967940
   0.84748286  0.34833322  0.25023674
   0.34798875  0.84826571  0.25029610
   0.84835451  0.84810715  0.24971992
   0.34758722  0.34794961  0.49966021
   0.84808773  0.34822931  0.49998050
   0.34793128  0.84764572  0.50050791
   0.84733597  0.84734998  0.49988939
   0.34820545  0.34715671  0.75034771
   0.84729545  0.34786851  0.75007239
   0.34762698  0.84714342  0.74987527
   0.84739581  0.84739637  0.74990912
Direct configuration=     4
   0.24963931  0.24990827  0.12495659
   0.74882088  0.24938942  0.12498497
   0.24960445  0.74971244  0.12474919
   0.75068893  0.74994179  0.12508980
   0.25025516  0.25041417  0.37494209
   0.74926864  0.24981212  0.37552408
   0.24998571  0.74985753  0.37470583
   0.74974269  0.74958405  0.37487014
   0.24927829  0.25011631  0.62500476
   0.75007544  0.25010930  0.62485514
   0.25128165  0.75008523  0.62463935
   0.74971173  0.74976955  0.62467249
   0.25048389  0.25013936  0.87462444
   0.74999225  0.25016131  0.87470339
   0.24974073  0.75035991  0.87485946
   0.74986589  0.75006677  0.87509255
  -0.00003704  0.00037328 -0.00001713
   0.50042079 -0.00003040  0.00027472
   0.00042273  0.49936431 -0.00019637
   0.50037211  0.50027841 -0.00029340
  -0.00015156  0.00006932  0.24966967
   0.49971936 -0.00032629  0.24974225
  -0.00011814  0.49969086  0.25007279
   0.50057985  0.49994020  0.25030278
   0.00010967 -0.00014359  0.49994244
   0.49909619  0.00029762  0.49996101
  -0.00030070  0.50024236  0.49976802
   0.50016606  0.49943486  0.49978451
   0.00065219  0.00060405  0.75035857
   0.50048932 -0.00029310  0.75001951
   0.00026648  0.50034862  0.75047663
   0.50001310  0.50021583  0.74991611
   0.09678598  0.40276847  0.12457457
   0.59744893  0.40155155  0.12503459
   0.09813501  0.90254307  0.12541390
   0.59696847  0.90221087  0.12492855
   0.09802168  0.40185751  0.37479361
   0.59740542  0.40133008  0.37493867
   0.09868895  0.90103887  0.37516557
   0.59703983  0.90200740  0.37427380
   0.09859397  0.40184919  0.62443695
   0.59864020  0.40229945  0.62499476
   0.09752425  0.90295829  0.62509891
   0.59616836  0.90226504  0.62575703
   0.09682128  0.40269938  0.87480069
   0.59791867  0.40302322  0.87469454
   0.09774926  0.90251345  0.87506050
   0.59735616  0.90256651  0.87554059
   0.40266790  0.09795673  0.12598203
   0.90287876  0.09790347  0.12575735
   0.40224583  0.59710220  0.12544240
   0.90196719  0.59685528  0.12544713
   0.40213921  0.09628792  0.37449503
   0.90199904  0.09865941  0.37485286
   0.40265578  0.59730344  0.37500713
   0.90334244  0.59885841  0.37491633
   0.40224746  0.09865575  0.62502177
   0.90250846  0.09819503  0.62561129
   0.40283794  0.59760534  0.62499182
   0.90126649  0.59715091  0.62501441
   0.40284669  0.09740515  0.87553305
   0.90212806  0.09789439  0.87468448
   0.40265469  0.59777083  0.87560925
   0.90293000  0.59872327  0.87517576
   0.15271760  0.15235449  0.00051875
   0.65250324  0.15232916 -0.00022684
   0.15097986  0.65168465  0.00013780
   0.65338209  0.65270296 -0.00079430
   0.15294941  0.15292925  0.25040840
   0.65126192  0.15224958  0.24982518
   0.15185071  0.65200556  0.25066278
   0.65254434  0.65301877  0.25007786
   0.15047861  0.15220603  0.50027997
   0.65189748  0.15242113  0.50039626
   0.15276922  0.65134582  0.50032769
   0.65273342  0.65231089  0.50098630
   0.15182735  0.15281309  0.75001872
   0.65236240  0.15267929  0.74941405
   0.15379194  0.65252830  0.74944644
   0.65074824  0.65246757  0.74982676
   0.34801567  0.34770979  0.00093053
   0.84688619  0.34776694  0.00050278
   0.34712207  0.84836174 -0.00034484
   0.84779225  0.84736753  0.00010907
   0.34887235  0.34669664  0.24952036
   0.84736772  0.34864280  0.25035507
   0.34812496  0.84853954  0.25044296
   0.84867481  0.84830409  0.24958045
   0.34752571  0.34806811  0.49949127
   0.84827457  0.34848704  0.49997029
   0.34804156  0.84761320  0.50076077
   0.84714893  0.84717100  0.49983414
   0.34845154  0.34687982  0.75052152
   0.84708932  0.34794824  0.75010889
   0.34758600  0.84686154  0.74981400
   0.84723906  0.84724023  0.74986390
Direct configuration=     5
   0.24951988  0.24987755  0.12494259
   0.74842824  0.24918695  0.12498064
   0.24947317  0.74961658  0.12466603
   0.75091878  0.74992221  0.12511942
   0.25033991  0.25055189  0.37492224
   0.74902615  0.24974920  0.37569757
   0.24998045  0.74981019  0.37460789
   0.74965688  0.74944644  0.37482729
   0.24903781  0.25015518  0.62500559
   0.75010109  0.25014572  0.62480711
   0.25170779  0.75011343  0.62451901
   0.74961620  0.74969316  0.62456424
   0.25064638  0.25018548  0.87450016
   0.74998972  0.25021571  0.87460473
   0.24965464  0.75047951  0.87481229
   0.74982152  0.75008906  0.87512235
  -0.00004949  0.00049776 -0.00002258
   0.50056045 -0.00004024  0.00036666
   0.00056235  0.49915257 -0.00026082
   0.50049599  0.50037090 -0.00039079
  -0.00020178  0.00009285  0.24956042
   0.49962584 -0.00043498  0.24965654
  -0.00015827  0.49958712  0.25009676
   0.50077239  0.49991983  0.25040282
   0.00014612 -0.00019146  0.49992350
   0.49879508  0.00039666  0.49994756
  -0.00040042  0.50032327  0.49969100
   0.50022122  0.49924658  0.49971329
   0.00086834  0.00080426  0.75047663
   0.50065240 -0.00039052  0.75002590
   0.00035477  0.50046544  0.75063441
   0.50001816  0.50028822  0.74988794
   0.09648142  0.40292535  0.12443381
   0.59736227  0.40130805  0.12504613
   0.09827618  0.90262731  0.12555017
   0.59672460  0.90218182  0.12490360
   0.09812474  0.40171439  0.37472542
   0.59730369  0.40101302  0.37491918
   0.09901091  0.90062680  0.37522140
   0.59681985  0.90191178  0.37403556
   0.09888565  0.40170536  0.62425202
   0.59894677  0.40230416  0.62499272
   0.09746294  0.90317969  0.62513179
   0.59565670  0.90225643  0.62600766
   0.09652828  0.40283264  0.87473395
   0.59798828  0.40326591  0.87459396
   0.09776205  0.90258811  0.87508178
   0.59723929  0.90265834  0.87571958
   0.40279233  0.09803913  0.12630539
   0.90307498  0.09796718  0.12600758
   0.40223089  0.59690212  0.12558908
   0.90185794  0.59657362  0.12559508
   0.40208643  0.09581794  0.37433053
   0.90190438  0.09897153  0.37480408
   0.40277897  0.59716795  0.37500966
   0.90369167  0.59924018  0.37488894
   0.40223322  0.09896909  0.62502911
   0.90258111  0.09835514  0.62581380
   0.40302049  0.59756885  0.62498827
   0.90092874  0.59696356  0.62502026
   0.40302842  0.09730649  0.87570949
   0.90207530  0.09795496  0.87458164
   0.40277452  0.59779121  0.87581199
   0.90314343  0.59905896  0.87523207
   0.15285851  0.15237521  0.00068922
   0.65257419  0.15234160 -0.00030215
   0.15054869  0.65148756  0.00018418
   0.65374327  0.65283854 -0.00105605
   0.15316719  0.15314065  0.25054420
   0.65092389  0.15223874  0.24976805
   0.15170870  0.65191385  0.25088147
   0.65262888  0.65325991  0.25010370
   0.14988082  0.15218070  0.50037274
   0.65176779  0.15246497  0.50052762
   0.15293041  0.65103351  0.50043644
   0.65287930  0.65231650  0.50131072
   0.15167509  0.15298817  0.75002651
   0.65238571  0.15280806  0.74922068
   0.15428802  0.65260450  0.74926388
   0.65023718  0.65252806  0.74977032
   0.34811616  0.34770951  0.00123697
   0.84661201  0.34778514  0.00066846
   0.34692403  0.84857547 -0.00045796
   0.84782141  0.84725631  0.00014600
   0.34925827  0.34636080  0.24936284
   0.84725106  0.34895038  0.25047339
   0.34825786  0.84880896  0.25058848
   0.84899318  0.84849958  0.24944159
   0.34746443  0.34818550  0.49932343
   0.84845943  0.34874301  0.49995956
   0.34815186  0.84758066  0.50101241
   0.84696223  0.84699361  0.49977902
   0.34869611  0.34660308  0.75069531
   0.84688497  0.34802888  0.75014573
   0.34754600  0.84658172  0.74975402
   0.84708303  0.84708518  0.74981893
Direct configuration=     6
   0.24940113  0.24984672  0.12492900
   0.74803589  0.24898541  0.12497689
   0.24934236  0.74952072  0.12458324
   0.75114887  0.74990247  0.12514877
   0.25042443  0.25068936  0.37490189
   0.74878475  0.24968604  0.37587003
   0.24997476  0.74976296  0.37451004
   0.74957101  0.74930972  0.37478481
   0.24879735  0.25019413  0.62500576
   0.75012719  0.25018213  0.62475929
   0.25213310  0.75014142  0.62439855
   0.74952117  0.74961712  0.62445678
   0.25080989  0.25023130  0.87437667
   0.74998725  0.25027065  0.87450623
   0.24956884  0.75059878  0.87476481
   0.74977745  0.75011140  0.87515125
  -0.00006202  0.00062228 -0.00002780
   0.50069959 -0.00004983  0.00045888
   0.00070084  0.49894097 -0.00032440
   0.50061974  0.50046311 -0.00048782
  -0.00025173  0.00011673  0.24945195
   0.49953235 -0.00054360  0.24957103
  -0.00019904  0.49948278  0.25012048
   0.50096427  0.49989906  0.25050207
   0.00018253 -0.00023935  0.49990476
   0.49849409  0.00049555  0.49993373
  -0.00049969  0.50040430  0.49961425
   0.50027621  0.49905838  0.49964262
   0.00108344  0.00100352  0.75059340
   0.50081544 -0.00048767  0.75003221
   0.00044258  0.50058282  0.75079121
   0.50002380  0.50036101  0.74985959
   0.09617993  0.40307992  0.12429395
   0.59727610  0.40106662  0.12505769
   0.09841717  0.90271125  0.12568498
   0.59648368  0.90215032  0.12487768
   0.09822734  0.40157199  0.37465771
   0.59720191  0.40069824  0.37490053
   0.09932946  0.90021869  0.37527776
   0.59660293  0.90181475  0.37380057
   0.09917505  0.40156391  0.62406940
   0.59925060  0.40230998  0.62499041
   0.09740226  0.90339986  0.62516465
   0.59514711  0.90224742  0.62625686
   0.09623819  0.40296304  0.87466700
   0.59805812  0.40350700  0.87449441
   0.09777474  0.90266275  0.87510405
   0.59712348  0.90274975  0.87589751
   0.40291528  0.09812181  0.12662536
   0.90327105  0.09803037  0.12625587
   0.40221559  0.59670432  0.12573508
   0.90174704  0.59629487  0.12574208
   0.40203137  0.09535154  0.37416931
   0.90181140  0.09928021  0.37475550
   0.40290312  0.59703260  0.37501232
   0.90403938  0.59962126  0.37486204
   0.40221871  0.09928107  0.62503651
   0.90265343  0.09851416  0.62601527
   0.40320286  0.59753116  0.62498399
   0.90059364  0.59677547  0.62502701
   0.40320671  0.09721052  0.87588488
   0.90202335  0.09801502  0.87448077
   0.40289267  0.59781187  0.87601447
   0.90335687  0.59939308  0.87528641
   0.15299776  0.15239503  0.00085763
   0.65264484  0.15235328 -0.00037718
   0.15012195  0.65129416  0.00023091
   0.65410173  0.65297210 -0.00131516
   0.15338300  0.15335037  0.25067968
   0.65058960  0.15222989  0.24971189
   0.15157016  0.65182451  0.25109827
   0.65271304  0.65349929  0.25012940
   0.14928780  0.15215740  0.50046509
   0.65163882  0.15250874  0.50065840
   0.15309263  0.65072309  0.50054478
   0.65302322  0.65232066  0.50163137
   0.15152423  0.15316372  0.75003562
   0.65240811  0.15293576  0.74902893
   0.15477997  0.65267765  0.74908307
   0.64972828  0.65258942  0.74971497
   0.34821570  0.34770925  0.00154028
   0.84633849  0.34780290  0.00083249
   0.34672449  0.84878641 -0.00056954
   0.84785226  0.84714781  0.00018345
   0.34964315  0.34602688  0.24920734
   0.84713244  0.34925532  0.25059172
   0.34838640  0.84907259  0.25073223
   0.84930909  0.84869319  0.24930355
   0.34740354  0.34830149  0.49915702
   0.84864168  0.34899661  0.49994812
   0.34826228  0.84754813  0.50126241
   0.84677602  0.84681837  0.49972402
   0.34893863  0.34632653  0.75086908
   0.84668295  0.34811073  0.75018307
   0.34750736  0.84630473  0.74969585
   0.84692799  0.84693163  0.74977433
Direct configuration=     7
   0.24928322  0.24981572  0.12491587
   0.74764384  0.24878494  0.12497382
   0.24921212  0.74942484  0.12450089
   0.75137928  0.74988255  0.12517778
   0.25050870  0.25082655  0.37488095
   0.74854462  0.24962256  0.37604129
   0.24996854  0.74971582  0.37441227
   0.74948506  0.74917406  0.37474281
   0.24855692  0.25023314  0.62500513
   0.75015384  0.25021854  0.62471174
   0.25255742  0.75016913  0.62427795
   0.74942676  0.74954155  0.62435028
   0.25097467  0.25027675  0.87425412
   0.74998485  0.25032629  0.87440793
   0.24948337  0.75071770  0.87471698
   0.74973376  0.75013381  0.87517904
  -0.00007464  0.00074686 -0.00003275
   0.50083808 -0.00005910  0.00055143
   0.00083795  0.49872954 -0.00038694
   0.50074333  0.50055500 -0.00058441
  -0.00030133  0.00014104  0.24934442
   0.49943891 -0.00065215  0.24948577
  -0.00024060  0.49937773  0.25014389
   0.50115540  0.49987784  0.25060035
   0.00021887 -0.00028727  0.49988629
   0.49819323  0.00059427  0.49991946
  -0.00059844  0.50048549  0.49953784
   0.50033099  0.49887028  0.49957261
   0.00129727  0.00120164  0.75070862
   0.50097843 -0.00058447  0.75003842
   0.00052981  0.50070088  0.75094686
   0.50003014  0.50043426  0.74983102
   0.09588230  0.40323157  0.12415521
   0.59719051  0.40082769  0.12506925
   0.09855797  0.90279480  0.12581800
   0.59624641  0.90211575  0.12485054
   0.09832937  0.40143047  0.37459063
   0.59710002  0.40038616  0.37488292
   0.09964378  0.89981549  0.37533480
   0.59638982  0.90171595  0.37356961
   0.09946167  0.40142547  0.62388968
   0.59955110  0.40231720  0.62498776
   0.09734237  0.90361851  0.62519743
   0.59464011  0.90223787  0.62650423
   0.09595169  0.40308989  0.87459978
   0.59812826  0.40374613  0.87439618
   0.09778730  0.90273738  0.87512751
   0.59700900  0.90284062  0.87607418
   0.40303641  0.09820489  0.12694113
   0.90346691  0.09809303  0.12650177
   0.40219985  0.59650931  0.12588025
   0.90163412  0.59601977  0.12588790
   0.40197346  0.09488961  0.37401217
   0.90172052  0.09958467  0.37470722
   0.40302851  0.59689741  0.37501515
   0.90438522  0.60000153  0.37483568
   0.40220387  0.09959134  0.62504397
   0.90272530  0.09867185  0.62621542
   0.40338502  0.59749197  0.62497882
   0.90026185  0.59658655  0.62503483
   0.40338075  0.09711782  0.87605902
   0.90197235  0.09807447  0.87438229
   0.40300878  0.59783286  0.87621659
   0.90357026  0.59972525  0.87533835
   0.15313493  0.15241367  0.00102348
   0.65271510  0.15236397 -0.00045188
   0.14970066  0.65110533  0.00027814
   0.65445676  0.65310306 -0.00157102
   0.15359632  0.15355797  0.25081481
   0.65025983  0.15222350  0.24965693
   0.15143592  0.65173806  0.25131276
   0.65279665  0.65373637  0.25015494
   0.14870064  0.15213654  0.50055690
   0.65151066  0.15255238  0.50078846
   0.15325609  0.65041493  0.50065264
   0.65316465  0.65232297  0.50194733
   0.15137515  0.15333978  0.75004633
   0.65242930  0.15306207  0.74883919
   0.15526676  0.65274699  0.74890440
   0.64922197  0.65265184  0.74966098
   0.34831416  0.34770915  0.00183974
   0.84606583  0.34782022  0.00099448
   0.34652311  0.84899391 -0.00067917
   0.84788519  0.84704271  0.00022149
   0.35002678  0.34569537  0.24905437
   0.84701148  0.34955710  0.25071010
   0.34850959  0.84932911  0.25087385
   0.84962200  0.84888449  0.24916647
   0.34734315  0.34841581  0.49899239
   0.84882073  0.34924731  0.49993582
   0.34837290  0.84751565  0.50151033
   0.84659053  0.84664589  0.49966925
   0.34917869  0.34605033  0.75104277
   0.84648388  0.34819411  0.75022102
   0.34747050  0.84603133  0.74963987
   0.84677421  0.84677998  0.74973019
Direct configuration=     8
   0.24916628  0.24978451  0.12490333
   0.74725213  0.24858577  0.12497156
   0.24908256  0.74932894  0.12441906
   0.75161007  0.74986238  0.12520636
   0.25059266  0.25096340  0.37485927
   0.74830606  0.24955866  0.37621109
   0.24996167  0.74966879  0.37431460
   0.74939903  0.74903967  0.37470141
   0.24831651  0.25027225  0.62500354
   0.75018119  0.25025493  0.62466452
   0.25298050  0.75019652  0.62415720
   0.74933313  0.74946654  0.62424498
   0.25114101  0.25032175  0.87413271
   0.74998253  0.25038277  0.87430987
   0.24939828  0.75083618  0.87466871
   0.74969051  0.75015634  0.87520547
  -0.00008737  0.00087150 -0.00003739
   0.50097578 -0.00006799  0.00064437
   0.00097336  0.49851830 -0.00044822
   0.50086673  0.50064648 -0.00068044
  -0.00035052  0.00016588  0.24923803
   0.49934553 -0.00076062  0.24940080
  -0.00028313  0.49927179  0.25016692
   0.50134560  0.49985605  0.25069742
   0.00025512 -0.00033522  0.49986815
   0.49789254  0.00069278  0.49990463
  -0.00069653  0.50056686  0.49946184
   0.50038549  0.49868228  0.49950342
   0.00150956  0.00139838  0.75082195
   0.50114136 -0.00068086  0.75004454
   0.00061634  0.50081983  0.75110108
   0.50003735  0.50050807  0.74980220
   0.09558928  0.40337970  0.12401785
   0.59710561  0.40059174  0.12508084
   0.09869856  0.90287784  0.12594886
   0.59601346  0.90207758  0.12482199
   0.09843072  0.40129004  0.37452429
   0.59699805  0.40007734  0.37486655
   0.09995303  0.89941811  0.37539269
   0.59618127  0.90161506  0.37334343
   0.09974503  0.40129058  0.62371338
   0.59984765  0.40232606  0.62498472
   0.09728341  0.90383536  0.62523012
   0.59413626  0.90222763  0.62674942
   0.09566950  0.40321249  0.87453227
   0.59819875  0.40398289  0.87429951
   0.09779971  0.90281198  0.87515239
   0.59689612  0.90293083  0.87624931
   0.40315534  0.09828842  0.12725189
   0.90366249  0.09815512  0.12674481
   0.40218361  0.59631763  0.12602447
   0.90151880  0.59574902  0.12603233
   0.40191218  0.09443294  0.37385991
   0.90163208  0.09988415  0.37465929
   0.40315539  0.59676238  0.37501817
   0.90472886  0.60038093  0.37480996
   0.40218863  0.09989963  0.62505148
   0.90279665  0.09882802  0.62641396
   0.40356696  0.59745097  0.62497254
   0.89993390  0.59639665  0.62504391
   0.40354974  0.09702905  0.87623163
   0.90192244  0.09813321  0.87428674
   0.40312244  0.59785425  0.87641824
   0.90378361  0.60005515  0.87538741
   0.15326954  0.15243083  0.00118630
   0.65278484  0.15237344 -0.00052618
   0.14928585  0.65092191  0.00032592
   0.65480767  0.65323085 -0.00182297
   0.15380661  0.15376299  0.25094949
   0.64993541  0.15221997  0.24960341
   0.15130672  0.65165499  0.25152448
   0.65287952  0.65397063  0.25018026
   0.14812042  0.15211854  0.50064809
   0.65138351  0.15259581  0.50091768
   0.15342097  0.65010946  0.50075995
   0.65330301  0.65232295  0.50225768
   0.15122815  0.15351642  0.75005897
   0.65244904  0.15318669  0.74865186
   0.15574734  0.65281172  0.74872830
   0.64871871  0.65271548  0.74960861
   0.34841131  0.34770925  0.00213465
   0.84579426  0.34783702  0.00115401
   0.34631961  0.84919736 -0.00078653
   0.84792059  0.84694165  0.00026026
   0.35040899  0.34536676  0.24890442
   0.84688783  0.34985516  0.25082859
   0.34862643  0.84957720  0.25101296
   0.84993132  0.84907300  0.24903055
   0.34728341  0.34852814  0.49882988
   0.84899605  0.34949456  0.49992252
   0.34848385  0.84748337  0.50175574
   0.84640596  0.84647678  0.49961470
   0.34941587  0.34577458  0.75121636
   0.84628835  0.34827933  0.75025966
   0.34743580  0.84576224  0.74958652
   0.84662197  0.84663065  0.74968660
Direct configuration=     9
   0.24905047  0.24975306  0.12489145
   0.74686081  0.24838809  0.12497022
   0.24895373  0.74923300  0.12433780
   0.75184135  0.74984193  0.12523447
   0.25067627  0.25109989  0.37483673
   0.74806929  0.24949429  0.37637923
   0.24995409  0.74962189  0.37421704
   0.74931289  0.74890676  0.37466071
   0.24807611  0.25031144  0.62500085