ITEM: TIMESTEP
10000
ITEM: NUMBER OF ATOMS
832
ITEM: BOX BOUNDS pp pp pp
0.0000000000000000e+00 1.9748400000000000e+01
0.0000000000000000e+00 1.9748400000000000e+01
0.0000000000000000e+00 1.9748400000000000e+01
ITEM: ATOMS id element xu yu zu vx vy vz fx fy fz
1 O 13.616 11.0977 20.3023 6.66216 -1.03343 3.63836 -0.494491 0.276453 0.453371
2 C 14.0498 11.0733 18.927 -3.18704 -2.81658 -8.13946 1.30823 -0.523136 0.410543
3 C 14.0891 9.66446 18.3827 9.68507 -0.838033 -1.71012 0.924298 -0.900579 -1.47049
4 O 12.7228 9.24249 18.1494 0.596888 -0.750464 -9.49148 -0.496555 -1.10723 1.25023
5 C 14.8707 9.67854 16.9667 6.25648 -3.46502 0.0199313 -1.96779 0.534038 1.70876
6 H 14.16 10.487 20.8809 -6.01183 -4.93529 5.33344 0.0816218 0.183194 -0.628199
7 H 13.3655 11.6549 18.2778 -3.91089 8.95823 -8.01988 0.182062 -0.0359177 0.538319
8 H 15.0907 11.4489 18.8832 1.62991 6.07469 1.83471 -0.3355 0.348843 -0.13843
9 H 14.5563 8.86492 19.0598 -23.2584 3.7302 -6.46963 -0.182059 1.25142 -0.546322
10 H 12.4637 8.83434 19.0542 -5.51529 -15.2534 5.3152 -0.0511428 0.361459 -0.913406
11 H 15.8658 10.038 17.1414 -25.4488 -27.4112 3.36052 0.718847 0.13363 -0.205475
12 H 14.8072 8.69777 16.5643 -1.40616 -22.6277 -7.38187 0.367027 -1.0985 -0.356082
13 H 14.2925 10.3159 16.284 -1.94082 -5.56937 12.7265 0.218506 0.26031 0.172236
14 O 19.5158 12.6438 3.77027 -4.79571 -3.2969 2.8736 -0.853432 0.63501 -3.22217
15 C 19.2256 11.6853 4.77853 -0.509527 -4.19286 3.22746 -0.071897 -0.728051 -0.505286
16 C 19.2113 10.2559 4.21711 3.26246 -0.0453248 -1.67632 -0.672127 -0.0748406 1.28079
17 O 20.4159 9.94708 3.48345 -1.64288 3.33509 5.34386 0.375575 0.216327 0.740444
18 C 18.9359 9.34802 5.44913 -0.5007 7.05151 -0.765998 0.246712 0.82193 0.615274
19 H 18.9064 12.4996 2.90163 -3.87104 9.87888 -13.735 1.3985 0.495685 2.3279
20 H 20.0309 11.6651 5.50901 8.21075 16.4324 3.57368 -0.072675 0.59656 0.246423
21 H 18.2589 11.985 5.19635 -12.0155 11.5713 -11.2571 0.0369469 -0.467364 0.389118
22 H 18.4095 10.1601 3.52718 16.7527 -6.65948 6.60454 -0.790363 -0.0721306 -0.784748
23 H 21.0802 10.0997 4.19305 10.8268 -22.984 -34.161 0.515285 -0.171703 -0.416264
24 H 19.035 8.2679 5.27259 -24.6908 7.61263 9.21635 -0.147074 0.317655 -0.0292747
25 H 19.5614 9.69854 6.30467 6.44172 6.91236 2.93031 0.28639 -0.486245 -0.570727
26 H 17.9512 9.65692 5.84012 1.07609 15.6388 0.194532 -0.236354 -0.620389 -0.374424
27 O 7.46734 18.8172 -0.0614022 0.940402 0.423871 1.23765 -1.01061 -0.0139209 0.609467
28 C 6.0501 19.2677 -0.0864338 -5.12565 7.25011 2.22218 0.0307291 0.946121 -1.14435
29 C 5.36285 19.0365 1.22145 4.8396 5.074 1.93133 0.0322087 0.153179 1.15357
30 O 6.02691 19.7134 2.39351 -1.44537 -0.450173 3.1039 -0.259543 0.267031 -0.501743
31 C 3.81999 19.2859 1.17623 5.50454 -1.97646 -3.84819 1.40575 1.48584 1.67064
32 H 7.60981 18.5457 -0.975618 0.450457 21.0263 11.9051 0.461174 -0.292357 -0.800038
33 H 6.06504 20.3407 -0.452239 3.28844 -8.99504 -2.50097 -0.319019 -0.910166 0.57649
34 H 5.4407 18.6637 -0.800626 16.4648 -8.20701 -4.19383 0.65832 0.262687 0.0203837
35 H 5.52238 17.9627 1.44198 5.33688 -9.31617 15.0756 -0.139273 0.315011 0.142968
36 H 5.9629 20.7169 2.40017 20.5625 -20.0134 -9.043 -0.344466 -1.1235 -0.47783
37 H 3.49895 20.3357 1.23477 0.267589 13.9951 12.724 0.547446 0.186339 -0.0314563
38 H 3.3428 18.9016 0.347263 7.44102 -12.2281 0.130602 -0.684259 -1.15018 -2.08787
39 H 3.39496 18.8291 2.04138 3.94157 8.60158 2.65315 -0.390767 -0.565233 0.770756
40 O 16.901 8.26256 9.60421 -7.17835 -4.95799 1.0468 1.56466 -0.261609 1.04741
41 C 18.2127 8.49729 8.91674 4.03239 3.14283 -9.09378 -0.90627 -0.428787 1.05282
42 C 19.3336 9.06399 9.84932 4.72161 -9.87614 -1.55832 0.594442 1.16514 0.46937
43 O 18.8499 9.78146 11.0759 4.86891 -1.51487 -5.15033 -0.402038 -0.822719 -0.588604
44 C 20.4083 8.00393 10.255 0.420919 -11.8586 0.0786056 0.673615 0.53023 -1.30389
45 H 17.1669 7.86961 10.5234 -11.3887 -3.20321 -23.7286 -0.814683 0.586385 -1.33499
46 H 18.5905 7.53346 8.54563 -15.0368 -4.59874 -13.5696 -0.26901 0.0349726 -0.229924
47 H 17.9345 9.16728 8.09674 -4.1688 -14.6755 -8.90571 0.505487 0.0445491 -0.0287838
48 H 19.7472 9.90925 9.28681 5.84208 -8.67291 -25.4647 0.521191 -0.395257 -0.379707
49 H 19.551 10.4638 11.2079 -16.271 0.525446 -3.57449 -0.0272728 0.0994238 0.436002
50 H 20.7376 7.53159 9.30667 -8.08036 -3.26908 -13.237 -0.355615 -0.270904 0.27281
51 H 21.3825 8.37598 10.6466 -19.7749 15.9428 -0.708556 -0.892933 0.378637 0.162984
52 H 19.9897 7.28613 10.9397 -16.7303 -2.94735 19.8353 -0.22825 -0.491931 0.281682
53 O 8.65836 8.78631 9.76873 -4.35067 5.13118 1.17652 0.639523 0.989142 -0.257886
54 C 9.34896 9.09741 11.0455 7.06799 -2.03364 -1.75816 -2.57389 -0.0372012 0.613893
55 C 9.77992 10.5753 11.2015 -0.403741 3.10304 -2.35806 1.4449 0.62527 -1.04318
56 O 8.63171 11.5038 10.9792 -0.258871 -0.0344659 2.45178 0.24358 -0.420867 0.683526
57 C 10.5902 10.9215 12.5302 1.91562 -1.32003 1.34514 -2.00554 0.798689 -0.573537
58 H 8.69396 9.62023 9.23796 16.0445 -1.9606 -0.375633 -0.336692 -0.323208 -0.367998
59 H 8.50125 8.92045 11.7898 -2.48821 13.0887 -5.69602 1.22694 -0.068891 -0.256185
60 H 10.1068 8.32926 11.0578 4.35521 -32.3425 8.96219 0.513562 0.352504 1.04268
61 H 10.5241 10.7976 10.3736 -26.5382 9.33783 -1.63213 -0.811341 -0.254723 0.569257
62 H 8.38764 11.5008 10.0165 1.5914 7.72629 3.3293 0.55264 -0.403088 0.348072
63 H 9.91422 11.3364 13.3121 19.3383 0.222083 -17.3308 0.149734 -0.128231 -0.450163
64 H 11.002 10.0282 12.9198 4.91196 -1.51794 -0.857155 0.65966 -1.06599 0.343534
65 H 11.3824 11.6467 12.3239 -3.90427 -2.34895 -0.0927566 -0.0504389 -0.147165 -0.0958171
66 O 15.9612 7.11371 1.64305 -2.48548 11.4764 -0.467702 -0.65976 0.801581 0.133298
67 C 17.2953 6.73178 1.54399 -1.16936 0.740124 -4.59606 2.05735 -1.15563 0.206898
68 C 18.1503 7.24408 2.75093 -6.1021 -1.41978 0.311633 -2.3292 1.08827 -0.663969
69 O 17.5694 6.54865 3.91533 -0.265212 -4.81107 1.10272 1.46338 0.0920304 0.492
70 C 19.5874 6.94531 2.45523 3.32712 4.32408 3.20844 0.190787 -1.43262 0.853311
71 H 15.4768 6.51395 1.0424 -2.99895 -2.2482 3.93279 -0.711917 -0.233195 -0.331829
72 H 17.376 5.60675 1.63202 -1.08728 1.44408 2.07227 0.0134166 0.518207 -0.173511
73 H 17.7848 6.9767 0.575044 -3.83328 24.4532 10.4798 -0.25048 0.286639 0.334947
74 H 17.99 8.38902 2.8948 1.36352 0.942792 -7.51889 0.059959 -1.72625 -0.235335
75 H 16.6005 6.51107 3.89555 -9.64709 -14.1384 -2.29412 -0.671477 0.378712 -0.483127
76 H 20.222 6.89641 3.32627 -2.15135 2.26062 -3.49629 0.180025 0.457649 0.630284
77 H 19.7296 5.92567 2.04011 1.63149 3.38355 -42.7492 -0.320752 0.407429 -0.377393
78 H 19.9048 7.73058 1.81095 -6.51303 -16.4493 26.5303 0.72674 0.442852 -0.7813
79 O 16.1663 11.0404 10.377 -2.3733 0.180521 2.03363 0.79502 0.451199 -0.260961
80 C 15.6943 10.3852 11.5496 -4.23145 4.80827 1.96153 -0.898041 -0.594706 0.538272
81 C 14.5529 11.1605 12.191 4.51263 -0.21113 1.48954 0.600615 0.773186 1.73136
82 O 13.5895 11.5342 11.236 4.15249 -1.84209 0.649662 -0.881999 0.107863 -0.603632
83 C 13.8778 10.2946 13.3041 -1.17122 -0.0100955 5.24676 1.42958 0.170724 -0.520016
84 H 16.6906 10.3184 9.97481 -8.78378 1.36451 4.00105 0.0524666 0.0249303 -0.321125
85 H 15.2234 9.43143 11.2319 8.96169 -24.5546 7.10955 0.423237 -0.0821634 0.286086
86 H 16.4995 10.2288 12.2901 4.51851 -1.74743 17.3617 -0.079562 -0.137011 -0.2342
87 H 14.9413 12.1231 12.649 4.46364 3.67049 7.40861 -0.00762449 -0.793825 -0.115517
88 H 13.99 12.2874 10.7503 25.4139 -13.9766 -12.7241 -0.228427 0.293386 -0.519245
89 H 12.9515 10.753 13.5913 15.6917 -5.85529 -2.22147 -0.763568 -0.214843 -0.15164
90 H 13.8847 9.24478 12.9845 9.46413 0.00502858 17.3274 -0.836495 0.134335 -0.0479259
91 H 14.4766 10.2969 14.2074 -17.6055 -11.1883 -14.7715 0.473424 0.159109 0.319255
92 O 11.5462 14.0703 8.74429 -0.447823 -0.156977 0.496817 1.14708 0.326682 0.122916
93 C 12.0462 14.7532 9.93183 0.125335 7.79864 1.30151 -1.15768 -0.612759 0.731389
94 C 13.524 15.0772 9.81575 -1.55939 0.898492 -13.571 -0.479841 -0.319091 0.505533
95 O 14.2727 13.8138 9.63161 3.96112 0.498607 3.047 -0.359979 1.0712 0.243597
96 C 13.7576 16.1792 8.76132 0.966384 -5.2445 0.219995 0.71628 0.140084 0.362856
97 H 10.5807 13.9438 8.80077 -1.36605 3.01576 24.4088 -0.730144 0.177891 0.175703
98 H 11.4667 15.6947 10.0602 -3.82384 10.4727 -13.3881 0.240078 -0.262265 0.117495
99 H 11.9135 14.1035 10.8528 16.2642 8.36292 -0.563891 -0.0706931 0.4603 -0.805916
100 H 13.7597 15.423 10.8341 23.4678 -14.7761 10.2282 0.455643 0.109712 -0.248904
101 H 13.9066 13.4177 8.80877 -2.9932 -8.31607 5.55032 0.214502 -0.405814 -0.381195
102 H 13.9609 17.1625 9.26709 -15.9792 -1.18571 4.76565 -0.798767 -0.535579 -0.37205
103 H 14.7191 15.9625 8.30746 11.6717 -18.8926 -3.478 0.137003 -0.248923 -0.587733
104 H 12.9352 16.1626 8.00925 -3.41876 12.0228 7.68624 0.585754 0.448877 0.400772
105 O 6.0545 0.912973 7.7052 -3.82877 2.54052 -2.15771 0.515526 0.526674 -1.53864
106 C 5.73094 2.06532 6.75283 5.59305 3.87614 3.95309 -0.458945 -0.843286 0.349062
107 C 4.21132 2.28702 6.6798 7.11175 7.67119 0.250102 -0.371076 -1.60994 -1.38769
108 O 3.83467 3.43618 5.8249 2.98522 3.72754 -0.0811071 0.77991 -0.624965 0.904498
109 C 3.49217 0.955854 6.09414 3.1605 4.09381 -2.03182 1.05253 2.04285 -0.363727
110 H 6.75712 0.383248 7.19827 -26.5121 -4.34268 -16.9045 -0.732798 0.37526 0.682631
111 H 6.1135 2.97704 7.16881 3.79881 -4.34576 4.11663 0.828988 0.446932 0.225184
112 H 6.12028 1.86399 5.75333 -9.12734 -4.01334 -11.5663 0.261138 -0.0888321 -0.0448938
113 H 3.97465 2.44387 7.72633 12.0285 8.83786 11.0738 -0.978162 0.344395 0.164733
114 H 4.2826 3.22398 4.96751 -2.25206 21.2691 4.73384 -0.0477594 0.0110393 -0.126983
115 H 3.72528 0.205609 6.82069 5.0914 8.369 1.02771 -0.0210162 -0.895629 0.21016
116 H 2.43986 1.19852 6.04765 -12.6448 0.0530877 -10.6229 -0.537058 -0.204872 -0.000715317
117 H 3.85809 0.738077 5.03892 -10.5559 1.6253 3.7468 -0.148537 0.130328 1.19792
118 O 10.7802 13.3846 18.8083 -3.84616 -6.67643 -1.44348 0.192094 -1.3791 0.518561
119 C 9.49763 14.0019 18.9979 -9.75314 -4.49102 -3.35629 1.63922 1.60831 -1.0969
120 C 8.81548 14.1804 17.643 0.528213 -4.80213 -3.84964 0.233243 0.314798 0.835531
121 O 8.70298 12.8596 17.0571 1.81645 0.942094 2.36159 0.860272 0.419634 -0.829998
122 C 7.43131 14.7466 18.0148 -4.95176 -8.97017 -4.14088 0.282134 1.12114 0.604738
123 H 10.7654 12.5531 19.3625 -8.46154 -4.38716 -14.2021 0.200041 -0.0095968 -0.45617
124 H 8.87753 13.5412 19.7265 -13.1919 -1.88363 1.22222 -0.619589 -0.788899 0.684514
125 H 9.80793 14.9762 19.3306 -7.07364 -10.7176 -8.33952 -0.597229 0.845599 0.476432
126 H 9.47388 14.8859 17.0401 6.40348 -6.92028 4.61791 -0.888171 -0.773189 0.232832
127 H 9.55518 12.3397 17.1983 -10.5627 -25.1877 -1.62497 -0.460447 0.267131 0.0108242
128 H 6.75108 13.9175 18.2747 -0.784117 -9.7943 -23.2404 0.0508299 0.38327 0.0208524
129 H 7.59869 15.4413 18.896 -6.58782 22.9176 8.2056 -0.361012 -0.905557 -0.366093
130 H 6.97692 15.4533 17.3236 -17.1161 4.63532 13.9393 -0.0968673 -0.31604 -0.765492
131 O 8.31206 16.425 1.4908 1.54904 -0.966351 -7.24011 -0.889893 0.357836 -0.2158
132 C 9.40527 16.9272 2.28066 2.79528 0.8564 -3.81928 0.670437 2.00353 -0.856462
133 C 9.32544 18.4799 2.55529 1.82696 -5.81553 2.91644 -0.658325 0.567821 -2.08048
134 O 8.29507 18.7185 3.56842 -1.19249 -1.14634 2.9246 0.405209 0.0731106 -0.124454
135 C 10.6342 19.125 2.97622 0.54921 -1.67928 5.44566 0.091623 -2.05619 2.55225
136 H 7.89595 17.1859 0.995654 -2.40149 -1.25598 7.37458 0.316173 -0.249228 0.0515572
137 H 9.41371 16.409 3.22283 -11.6484 -4.50844 -5.80374 0.103434 -0.363925 0.550996
138 H 10.3308 16.7655 1.71481 -13.6917 -17.6965 -8.12352 0.162354 -0.227717 0.162357
139 H 9.06956 19.0805 1.58387 -8.42476 3.73738 -8.16226 -0.184096 -1.36271 1.30619
140 H 7.46372 19.0213 3.12972 5.45668 -16.6593 6.1541 -0.211367 0.164537 -0.452668
141 H 10.5256 20.1839 3.03083 -8.33702 -3.42299 14.1032 0.1506 0.905906 -0.117124
142 H 10.7715 18.7218 4.02527 7.57325 1.27937 -8.49044 0.137551 0.668217 -0.450449
143 H 11.5376 18.7798 2.47844 16.6952 -14.8808 -0.363111 -0.0557781 0.152132 -0.68172
144 O -0.287862 12.2406 7.82226 -2.43195 -1.22772 6.52957 -2.07484 -0.492147 1.47232
145 C 0.981199 12.8515 7.85314 -1.68961 0.250166 -1.39795 0.981951 0.786993 1.07192
146 C 2.17366 11.8718 7.72317 -2.68457 4.6561 -1.51871 0.103703 0.24677 -1.29941
147 O 2.25408 11.2478 6.39455 -0.0185694 1.77519 2.05423 -0.804178 -0.484626 0.327304
148 C 3.48526 12.6312 7.9477 1.17931 6.81625 1.0878 -0.176177 -2.68892 2.39687
149 H -0.83911 12.4093 8.69508 9.62263 -6.28668 0.620311 1.70998 0.135283 -1.65062
150 H 1.0754 13.6144 7.08595 9.93988 -13.3913 -12.7151 -0.0852385 0.0622704 -0.818155
151 H 1.14924 13.4622 8.77092 2.2858 2.73658 -0.481551 -0.174151 -0.485416 0.0960237
152 H 2.03416 11.0724 8.47931 -13.6577 30.1503 -1.4736 0.0931676 0.0508065 -0.471326
153 H 2.74768 11.8464 5.78166 3.47015 10.8195 29.1272 -0.0316186 -0.0137186 -0.0690362
154 H 3.46291 12.5619 9.06313 14.4732 -3.41789 15.4927 0.784896 1.15452 -0.361312
155 H 4.36309 12.0175 7.64855 27.7602 0.854127 -8.41957 -0.378563 0.369723 -0.213964
156 H 3.49676 13.6032 7.54053 10.8912 0.918633 -13.0548 0.0472425 1.25592 -0.318387
157 O 10.5368 17.4688 17.4616 0.0199634 -3.91373 2.69946 -0.598777 -0.703216 -0.51361
158 C 10.9221 18.3144 18.536 1.76892 -3.65977 3.57523 0.894769 0.178359 -0.115989
159 C 11.7304 19.527 17.9957 3.00873 -0.966843 7.745 -0.256443 -0.758714 -0.582387
160 O 10.9231 20.355 17.0322 1.76071 1.5433 0.50403 0.973466 -0.590752 0.364468
161 C 12.134 20.4083 19.1279 0.725528 0.516244 0.659994 0.977097 0.0590648 -0.150425
162 H 9.63749 17.7611 17.1525 12.1336 6.21325 -4.08135 0.120748 0.0465319 0.250684
163 H 10.025 18.5011 19.0939 8.84462 19.6555 -13.4757 -0.47904 0.903481 0.498104
164 H 11.608 17.794 19.227 -2.91849 -6.08681 -3.8823 -0.136198 -0.162076 -0.402427
165 H 12.5558 19.0715 17.417 1.04156 -6.67472 12.5162 -0.00968406 0.556656 0.255369
166 H 10.8296 19.8172 16.1964 5.79507 8.30805 -11.9216 -0.440897 0.138527 -0.203965
167 H 12.6841 19.8354 19.8853 -7.40467 11.0548 -2.03989 -0.0784264 -0.0990746 0.0525947
168 H 12.792 21.2392 18.8332 3.80265 1.97296 0.4489 -0.303644 -0.0508378 -0.0898021
169 H 11.1969 20.7409 19.5109 -0.978508 19.5252 6.0884 -0.398632 0.626888 0.91188
170 O 1.45061 6.00474 5.18489 -2.82428 0.0911873 3.21248 -1.76745 -1.22469 0.198264
171 C 1.77139 6.95391 6.2007 -1.20563 -2.44482 0.0927839 0.981901 0.194926 0.0749216
172 C 3.34404 7.09544 6.19342 -3.14779 -3.97905 4.26003 -0.911248 -0.63917 -0.685601
173 O 3.67819 7.52188 4.8254 -3.1509 -2.30466 -1.77638 0.21429 0.121942 0.54151
174 C 3.82776 8.1575 7.14017 -6.747 -0.293002 -0.142583 -2.46412 0.219955 0.840273
175 H 0.547694 5.56648 5.40754 -1.68604 -2.57906 2.95234 1.24438 0.489324 -0.542498
176 H 1.40959 7.95012 5.89276 4.97288 -4.95642 -5.09668 -0.207393 -0.0648071 0.353468
177 H 1.36955 6.63051 7.19007 4.08295 -4.64356 9.32964 0.275491 0.312912 -0.275064
178 H 3.78071 6.09565 6.41013 -1.2205 -9.76188 6.09324 -0.0893163 0.294378 -0.166289
179 H 4.19441 6.80176 4.40487 15.448 -8.26529 10.257 -0.0519554 -0.245146 -0.224226
180 H 3.15737 9.04756 7.03915 -14.3161 16.311 -29.076 0.358988 -0.390298 0.248647
181 H 3.83686 7.79691 8.17868 -3.70919 5.79255 8.07007 0.0344835 0.087738 -0.0601316
182 H 4.77151 8.46343 6.85629 -4.445 13.525 -11.8344 2.27868 0.62169 -0.450573
183 O 2.24038 20.2467 15.5281 3.92016 -0.240543 -4.40289 1.07828 0.134302 0.250382
184 C 2.63656 18.8246 15.8194 2.9666 -3.07789 2.35143 -0.799061 1.25733 -1.90809
185 C 4.12921 18.5327 15.5298 -0.798647 -1.73634 2.73019 -2.01514 1.78269 -0.246352
186 O 4.8778 19.4733 16.3219 10.8435 -1.61531 0.195913 0.841522 0.285648 0.452937
187 C 4.42409 17.1676 16.012 -1.79482 -1.83013 1.14709 0.469604 -2.03209 -0.459954
188 H 1.28521 20.3538 15.7334 -3.00542 5.78283 4.53711 -0.107258 -0.303321 -0.0490737
189 H 2.47571 18.6806 16.8661 -6.66575 -9.74359 3.88908 -0.427047 -0.649021 0.766473
190 H 1.98181 18.3253 15.1031 11.2952 -2.93095 -5.96334 -0.0336998 -1.04517 0.527887
191 H 4.32792 18.7374 14.4595 -12.8271 9.13199 9.29422 0.0994039 -0.420971 0.175994
192 H 4.30131 20.2421 16.4963 4.72296 -2.96123 -10.241 0.0667398 0.104508 -0.176014
193 H 4.00966 16.972 17.0156 7.84079 -12.9702 2.10011 0.28431 0.186194 -0.143442
194 H 4.13361 16.3139 15.3531 -1.83071 -21.2471 17.2513 -0.489117 0.694015 0.0900619
195 H 5.49293 17.061 15.9689 -4.10469 0.643063 1.24256 0.758414 -0.0951109 0.691529
196 O 16.1898 14.5701 19.3239 3.40655 -0.611754 0.977589 -1.52178 0.409861 -0.840643
197 C 14.8252 14.6625 19.9292 0.173739 3.82402 -6.89952 0.062417 -0.851054 0.961666
198 C 14.3167 16.0944 19.9969 7.15182 1.38688 4.90994 -0.985299 -0.818124 -1.42278
199 O 14.2248 16.5951 18.6078 -1.78286 0.212415 -9.42756 -0.0721184 0.267432 0.109896
200 C 12.8946 16.1791 20.7041 -10.726 4.10622 5.29596 2.08463 1.2175 1.00241
201 H 16.0528 15.0282 18.4434 -1.88245 -2.18921 18.2723 0.55528 -0.299572 0.324603
202 H 14.0586 14.04 19.4241 23.5372 -26.5578 -2.34134 0.620021 0.0563074 -0.192658
203 H 14.977 14.273 20.9483 -9.75652 -7.29172 14.919 -0.239837 0.202396 -0.158683
204 H 15.1266 16.652 20.4551 -6.74178 21.6779 22.2264 -0.266484 0.583732 0.385475
205 H 13.4787 16.1053 18.1418 22.581 9.42267 -4.86831 0.463893 0.0979285 0.346409
206 H 12.8745 15.4279 21.4731 16.4642 -0.280164 -5.3065 0.110557 -0.418091 0.721357
207 H 12.9433 17.1859 21.2347 -1.01085 -19.043 12.8286 -0.917437 -0.949299 -0.618853
208 H 12.0071 15.968 20.1137 6.09467 -6.61064 0.390924 0.155741 0.41928 -0.603527
209 O 7.18718 5.16066 7.95162 -1.98478 3.00227 -0.0938774 -0.981953 -0.0985317 -0.0494139
210 C 6.17221 5.10628 9.00489 -3.14924 6.98683 -7.02636 0.171236 0.651672 0.0475172
211 C 6.51614 6.10533 10.1864 -3.68629 4.15786 3.31771 -1.45517 0.0453177 -2.52003
212 O 6.34123 7.42402 9.56293 1.53445 -4.30789 -0.857035 1.18252 0.207926 0.76447
213 C 5.4699 5.88479 11.2612 -0.366417 -0.0422822 3.87072 0.156266 -0.84157 -0.0308853
214 H 6.67004 5.21305 7.09461 -0.479643 -5.51116 -19.4662 1.12854 0.106925 0.323894
215 H 5.15886 5.41034 8.57712 -11.955 6.23684 -17.3659 0.939943 -0.443769 0.543488
216 H 6.20578 4.08054 9.35816 11.1836 -3.9329 -6.85764 -0.570026 -0.402963 0.387383
217 H 7.5397 5.89048 10.4873 5.25983 20.5259 -15.8058 0.244542 0.300572 0.221021
218 H 7.23534 7.89594 9.62893 -5.17394 7.95936 -12.2851 -0.858128 -0.207843 -0.09923
219 H 5.24029 6.75111 11.8588 3.56605 -12.3025 -3.99642 0.205578 0.42791 0.373904
220 H 4.52221 5.55932 10.8011 -1.17641 -5.70235 8.29984 0.137607 -0.0777716 0.162931
221 H 5.88328 5.07101 11.8704 -13.0422 0.287462 -5.04559 -0.48997 -0.0218216 0.372882
222 O 11.0948 11.7814 7.39737 0.944314 -4.84299 5.47917 -1.27787 -2.23687 -0.47986
223 C 12.0635 10.9126 8.05644 -4.45156 4.99516 -0.144601 -0.898631 0.446177 -0.574649
224 C 13.4313 11.0101 7.3673 -4.68843 -6.99783 -5.71357 0.855708 -0.599271 -0.785968
225 O 13.9091 12.3985 7.35761 -12.9899 -3.33092 2.48065 -0.00334326 0.144915 -0.351351
226 C 14.3181 10.0128 8.1546 -1.56124 4.47702 -2.61457 -0.555013 0.741613 -0.0612256
227 H 11.3183 12.693 7.41231 -0.758211 7.37727 -2.11168 1.06404 2.02787 0.623524
228 H 12.0614 11.157 9.19096 19.1775 -5.81592 -11.5642 0.450385 -0.637316 -1.72237
229 H 11.6424 9.91165 7.78106 11.726 8.76559 -12.9492 0.464042 0.388111 0.8525
230 H 13.4987 10.6838 6.26314 -1.01569 16.9862 -3.35015 -0.822211 0.293178 1.63172
231 H 13.5896 12.8882 6.54604 20.8423 -31.8381 -11.6225 0.0809257 -0.525715 0.810328
232 H 15.3646 10.05 7.9552 -10.562 -1.32267 -2.98076 0.910459 0.220849 -0.560588
233 H 14.2279 10.206 9.20885 9.11385 -5.54548 -0.0445114 -0.168524 0.0376255 0.619294
234 H 13.9596 9.01918 7.93204 -14.6148 11.6259 -7.52091 -0.11885 -0.521199 -0.0502945
235 O 7.10344 5.60614 5.4326 2.16441 -5.29384 0.699486 -0.264863 0.227377 -0.351149
236 C 7.96408 6.81711 5.3407 -0.784859 -2.03946 -1.25834 -0.137121 -1.21727 -2.42242
237 C 9.30208 6.68156 6.06468 1.50702 -6.35465 -1.99488 -1.47462 1.02979 0.424493
238 O 10.0781 5.57294 5.6575 3.93378 -0.010657 7.41396 0.868284 0.093387 -0.313511
239 C 9.91513 8.10863 5.94834 1.94246 4.13105 9.35118 -1.03618 -0.0175552 -0.311508
240 H 6.22284 5.88614 5.06745 12.2308 2.17663 9.41143 0.368499 -0.405391 -0.0734959
241 H 8.04796 6.97409 4.20329 4.24361 3.60989 -0.725223 0.427882 0.249223 1.42806
242 H 7.45377 7.63554 5.77383 -11.3124 -9.65071 4.9377 -0.826557 1.03009 0.467108
243 H 8.98086 6.51686 7.10393 -3.82059 15.8396 -12.1059 0.348697 -0.00303619 0.15336
244 H 9.44356 5.01841 5.1897 3.69791 10.7708 5.01394 -0.177586 -0.834244 -0.322794
245 H 9.68967 8.61858 4.96928 16.5102 3.57576 2.58023 -0.198577 -0.361343 0.882256
246 H 9.46825 8.64639 6.81161 -15.7918 12.6142 -10.1534 0.327792 0.258069 -0.556092
247 H 10.9669 8.11138 5.99577 3.73209 17.03 -6.33387 1.54048 -0.157382 0.401509
248 O 1.18446 11.579 11.6876 -0.627978 -2.13043 0.852289 -0.204352 -0.414226 -0.59286
249 C 1.13391 12.9465 12.0447 -4.90263 -8.18241 0.282643 2.05343 1.25835 1.04134
250 C 2.28333 13.4831 12.9807 7.2193 12.6925 0.0867817 -0.432553 0.208142 0.0552014
251 O 3.59977 13.3731 12.3176 3.32488 0.15267 -0.75896 -0.142462 -0.547757 0.0582473
252 C 2.09502 14.9615 13.3092 -1.38929 0.746422 4.42705 -0.822117 -0.179347 1.23094
253 H 2.00541 11.1781 12.0307 -4.87957 -0.99815 18.702 0.507155 -0.417884 0.358313
254 H 1.25662 13.6243 11.199 -4.559 -18.6488 -16.5194 -0.618717 -0.197692 -0.59667
255 H 0.263159 13.1129 12.6252 14.6314 -19.5195 2.99906 -1.25955 0.398646 0.171046
256 H 2.37482 12.9327 13.9144 11.3476 4.64561 9.43906 -0.184571 -0.260201 0.110538
257 H 3.85454 12.4516 12.5341 -13.7994 -10.0769 -9.99379 0.531367 -0.283591 -0.224332
258 H 1.19528 15.1308 13.9942 5.87711 -0.941523 17.0314 0.918985 -0.255283 -0.926372
259 H 2.99053 15.3012 13.8483 11.3204 3.01351 4.36813 -0.293936 0.109444 -0.0981113
260 H 1.98978 15.5306 12.3971 7.19154 -5.66214 -1.8691 -0.0963001 0.366145 -0.129052
261 O 19.2951 17.7172 14.5541 1.05213 -0.805473 -0.0341492 0.377931 -0.250828 0.0792332
262 C 19.3971 18.8309 13.6575 9.43661 -0.508776 -0.713859 0.994081 0.0112704 -0.335768
263 C 18.6589 20.0165 14.1665 0.616662 -4.25247 9.18249 -1.5017 0.256228 2.38497
264 O 19.0226 20.3059 15.6505 -6.49344 -1.53324 -3.95197 0.556297 0.0527581 -1.44268
265 C 18.7463 21.3101 13.3867 -7.19703 4.74834 5.66648 -1.28408 -0.640626 -1.25849
266 H 18.4352 17.2422 14.3489 -7.56018 15.9228 3.26405 0.280513 0.342161 0.173712
267 H 20.435 19.1377 13.4769 5.99642 10.7268 5.99612 0.288844 -0.454187 0.228433
268 H 18.9742 18.5664 12.7 2.44562 -3.59471 -14.3733 -0.221586 -0.132843 -0.686842
269 H 17.6492 19.5975 14.332 5.59415 -9.65359 2.96095 -0.244597 0.751911 -0.528181
270 H 18.7354 19.4684 16.0865 -4.68529 -9.4948 9.08145 -0.0953823 -0.150004 0.632131
271 H 18.5805 21.0533 12.2828 0.926773 11.6274 15.8465 0.459098 0.562323 1.13389
272 H 17.9521 22.0212 13.6722 10.0903 -10.1908 9.77384 0.263127 -0.428703 -0.0565523
273 H 19.6776 21.8106 13.5715 2.55869 9.14048 2.1372 0.828518 0.135893 -0.240571
274 O 8.59225 11.1662 8.17756 4.28056 2.50755 0.443834 0.374368 -0.28557 0.394042
275 C 7.60696 12.0931 7.71659 -4.91718 -2.26226 -2.60697 -0.915204 0.529786 -0.230112
276 C 7.68373 13.4301 8.47608 -2.7795 -2.89962 3.2906 -1.52905 -1.38615 1.4523
277 O 8.92587 13.9881 8.26315 1.84546 2.65006 0.518327 1.61191 1.31388 -1.54071
278 C 6.52999 14.3495 8.17397 -4.76298 2.75812 7.06695 -1.30024 -0.26239 -1.18356
279 H 9.5075 11.5327 7.94988 -12.9307 -1.94013 8.96215 -0.210817 -0.218383 -0.0862485
280 H 7.7615 12.268 6.64701 -8.16857 -16.2952 -8.95607 -0.118002 0.128224 -0.0523894
281 H 6.58038 11.7075 7.85115 23.3108 3.02192 8.97688 0.387208 -0.370238 0.0215373
282 H 7.62086 13.2195 9.56497 0.118242 -4.51322 26.4503 0.154454 -0.0306244 -0.281365
283 H 8.96414 14.1546 7.25854 9.04878 15.2128 3.35114 0.549109 0.0808793 0.823736
284 H 6.22647 14.2579 7.08609 -7.73606 3.15304 1.70159 0.281846 0.334786 0.807942
285 H 5.63253 14.11 8.77083 9.89579 -3.2351 -7.14924 0.163787 -0.143485 -0.12517
286 H 6.77852 15.3635 8.43922 19.3391 2.83079 8.72799 0.261656 0.648131 -0.171114
287 O 10.5267 10.7032 17.1708 -3.19933 -4.48977 -3.38366 0.0617504 -1.12636 0.0304111
288 C 9.60645 9.84644 16.4028 1.86155 -2.41451 3.19942 0.339888 -0.424116 1.00428
289 C 10.2338 8.69293 15.6205 -4.71183 -5.4749 7.49381 1.70693 0.354634 -0.937218
290 O 11.0348 7.69786 16.4029 -0.422408 -4.06147 1.65343 -1.82917 -0.0200043 -0.656121
291 C 9.21525 7.96786 14.7817 -4.34006 -8.13387 -0.134427 -1.78398 -0.597988 -0.35136
292 H 11.0131 10.1474 17.8565 -0.0368695 -6.75374 0.279125 -0.439847 0.706015 -0.613006
293 H 8.86771 9.34403 17.0492 -13.2676 13.7293 3.42868 -0.103015 0.796977 0.153069
294 H 9.1655 10.5531 15.7068 -13.4919 15.9547 -4.84236 -0.529638 -0.175653 -0.190939
295 H 10.9804 9.1733 14.9632 10.3844 -14.7946 -7.14751 -0.0751743 -0.108082 -0.0949853
296 H 11.7259 8.25849 16.735 7.90429 14.6932 -12.7072 1.61704 0.547996 1.09776
297 H 9.4322 7.95031 13.6949 -7.42838 19.4263 -10.746 0.328647 -0.225166 0.536329
298 H 8.99154 6.91469 15.1563 5.01428 -4.77182 8.88965 0.269497 1.40249 -0.431792
299 H 8.258 8.54007 14.814 -0.880937 0.620156 -29.3745 0.225461 -0.368707 0.0774933
300 O 3.72556 12.1613 4.307 -7.38365 -0.88772 1.86066 -0.0732989 -0.415743 0.763758
301 C 4.77985 11.1748 4.41254 0.0890144 3.07149 4.76387 -0.185838 -0.161403 -0.669544
302 C 6.1144 11.6928 3.88211 7.50263 -0.861093 -7.07658 1.27502 -0.824103 0.452136
303 O 6.59488 12.8473 4.61956 3.80977 6.34117 -2.17949 -1.0033 1.43201 -1.14806
304 C 7.1622 10.5668 4.14434 3.17483 -6.76333 5.41892 -1.04762 -0.714654 -1.08227
305 H 3.72711 12.6114 3.4086 4.43348 5.65815 7.71953 0.38505 -0.0545808 0.238175
306 H 4.97015 10.8569 5.44068 -7.94804 -11.5665 -10.9208 -0.447781 0.385305 0.419658
307 H 4.47903 10.2263 3.89988 -1.11817 -3.61329 -6.32054 0.190496 0.478664 -0.0589301
308 H 6.01154 11.9363 2.8186 -12.1745 -26.1842 -21.5616 0.158635 0.0238305 -0.107903
309 H 6.23506 13.6369 4.07727 -1.98589 3.27215 -3.89083 0.842108 -0.775864 1.04453
310 H 6.63705 9.66175 3.76899 -8.69769 5.87478 -14.4253 0.499412 -0.109173 0.254557
311 H 8.12516 10.6144 3.60709 -0.811123 11.0662 -6.47941 -0.30923 0.430567 0.198391
312 H 7.29598 10.4556 5.21834 -4.78655 1.7802 18.3954 0.229601 0.0300801 0.174209
313 O 7.41569 3.4823 3.07944 4.60502 -2.68609 -3.93663 1.64685 0.546612 0.085896
314 C 8.403 3.91124 2.08871 -0.390433 1.91091 -5.18164 -0.853925 -1.40675 -2.46028
315 C 8.92129 2.72653 1.17042 2.94372 5.39565 -6.07473 -0.134223 0.174229 1.72974
316 O 7.88378 2.12405 0.395301 2.00174 0.625694 1.4398 -1.54647 1.16421 0.21909
317 C 10.0882 3.24408 0.311086 3.85794 4.71914 5.48316 0.243713 -1.47563 0.206175
318 H 7.34884 4.27882 3.64184 7.78747 0.663778 8.27433 -0.42269 0.0991858 0.646953
319 H 7.90648 4.62514 1.43245 8.34947 7.4545 14.7655 0.0214639 0.238454 -0.0575576
320 H 9.306 4.33843 2.45678 -4.27902 -7.22777 20.4709 0.588107 0.521996 1.07416
321 H 9.16735 1.94447 1.91945 -9.66437 -3.9316 -20.0456 0.720585 0.228442 -0.337871
322 H 8.19169 1.35729 -0.0898689 4.89211 4.22709 9.35306 0.551133 -0.831049 -0.432097
323 H 9.91103 4.22278 -0.10517 7.50803 12.6163 1.61988 -0.234296 0.528432 -0.223131
324 H 10.9818 3.29216 0.964654 8.14161 -12.8864 4.0863 -0.199579 -0.036358 -0.465772
325 H 10.2212 2.50897 -0.528365 -10.637 5.99837 -4.73805 0.135512 0.879087 0.580748
326 O 15.0333 18.9718 14.0812 1.3495 -1.16104 -1.04561 0.625725 -0.217793 -0.915198
327 C 13.7036 18.862 13.5317 8.43487 3.07495 -2.69297 0.867504 0.176425 -1.54756
328 C 13.6771 19.575 12.1692 0.93247 -1.10791 -0.690839 -1.17879 0.170879 -0.373524
329 O 14.4184 18.766 11.2112 -1.31604 4.58442 -1.26581 -0.0715971 -0.456569 0.344427
330 C 12.1634 19.6273 11.6772 -8.5605 8.14971 -1.74826 -0.543962 -0.728295 1.82876
331 H 14.9085 18.9752 15.022 8.70087 -4.57733 -9.72133 0.25093 -0.0314558 1.75195
332 H 13.4333 17.8312 13.337 6.65821 5.41356 -0.988751 -0.0572436 -0.531647 0.102864
333 H 13.0262 19.2832 14.2255 -12.7798 -23.4559 8.02591 -1.10993 0.610566 0.607049
334 H 14.1307 20.5786 12.2607 7.65702 -2.8867 8.72447 -0.183329 -0.25932 -0.145153
335 H 15.0096 19.3005 10.6542 9.57913 -20.8694 -7.4082 0.0387385 0.698888 0.129012
336 H 11.5467 18.8464 12.2112 25.0215 10.8788 -0.379243 0.617825 0.386315 -0.233473
337 H 11.5514 20.5219 11.7992 8.57831 -3.87208 -8.54379 0.60774 0.630102 0.332695
338 H 12.0722 19.3704 10.6642 10.8986 15.0592 -12.2423 0.243789 -0.39152 -1.66991
339 O 6.375 7.10112 21.1889 -2.70167 -2.89259 -3.45507 -0.0126112 0.341992 1.09953
340 C 6.74015 6.6941 19.8792 -2.02425 -0.0332395 2.80537 1.43867 -0.950958 -2.18691
341 C 6.65605 7.8696 18.9111 -2.61427 -7.7153 -7.21221 0.415045 0.147355 -0.892704
342 O 7.60862 8.92429 19.3964 -0.175244 -3.70214 -1.09126 -1.81299 0.386955 -0.96203
343 C 7.05958 7.48526 17.4509 0.0701538 5.59157 2.0831 1.78142 -1.12557 2.09815
344 H 6.66476 8.04576 21.3524 0.851718 -1.67942 1.40255 -0.0492247 -0.882427 -0.452222
345 H 7.83893 6.28634 19.7535 0.178367 3.71649 -6.69184 -1.5424 0.598289 0.752681
346 H 6.08887 5.85413 19.4608 9.40315 -8.89451 -5.29894 0.4511 0.869059 0.84821
347 H 5.6329 8.22054 18.8932 5.83802 0.860749 -22.543 -0.515061 0.588211 0.305286
348 H 7.27081 9.68509 18.8091 24.6589 7.17833 1.22996 0.970656 -0.190117 0.825477
349 H 6.72907 6.45466 17.285 -16.0936 17.3253 -5.66165 0.0685976 -0.0713411 -0.29857
350 H 6.78945 8.11858 16.632 -5.4869 1.43127 -5.4875 -0.420415 0.721657 -0.301331
351 H 8.18632 7.50109 17.608 -9.79609 5.20345 -6.18856 -0.907474 -0.35923 -0.930469
352 O 15.4772 15.7846 2.98425 1.86266 -4.73334 -1.36847 0.046854 -0.244668 0.955176
353 C 15.3503 15.425 4.42268 -8.28928 2.26819 -1.83688 0.502883 1.54351 0.119031
354 C 16.6879 14.8145 4.96242 3.31737 -2.62003 -2.38819 -0.1652 0.470446 -0.239829
355 O 17.6326 15.8417 5.36021 2.92532 -0.441572 -0.959722 0.117765 0.737464 0.526964
356 C 16.5165 13.8212 6.10068 -2.98439 -4.17695 7.26277 0.39673 -1.49288 -0.0947766
357 H 15.8975 16.6766 3.02954 5.86502 -17.1258 6.19056 -0.180927 0.0720565 -0.0524425