ITEM: TIMESTEP
10000
ITEM: NUMBER OF ATOMS
832
ITEM: BOX BOUNDS pp pp pp
0.0000000000000000e+00 1.9511099999999999e+01
0.0000000000000000e+00 1.9511099999999999e+01
0.0000000000000000e+00 1.9511099999999999e+01
ITEM: ATOMS id element xu yu zu vx vy vz fx fy fz
1 O 17.8759 2.58214 10.9226 -5.60532 1.42327 2.47841 -0.958414 -0.440404 0.665348
2 C 19.2912 2.47924 11.2266 3.38104 -6.25128 -6.73004 -0.371095 -0.156693 0.095406
3 C 19.519 2.39641 12.7431 -8.10652 -1.09063 -0.330402 1.19089 0.508583 -0.788572
4 O 20.8692 1.88183 12.9819 -0.443775 -1.84109 -2.27857 -0.0383276 -0.37597 0.10988
5 C 19.3499 3.73836 13.4203 -1.34874 2.01924 -1.46202 0.669763 0.775024 1.77467
6 H 17.3258 2.06074 11.6171 -19.7886 -33.6758 2.93171 0.517111 0.763561 -0.956335
7 H 19.6707 1.61016 10.7027 8.53961 -15.0219 -2.18588 0.27586 -0.581457 0.0816562
8 H 19.8135 3.33216 10.8099 5.86997 -2.54978 -9.66403 0.00144511 0.507492 -0.146291
9 H 18.8217 1.69318 13.1086 1.78636 -16.0974 5.13122 -0.969407 -0.944249 0.73599
10 H 20.7769 0.890042 12.99 11.8943 12.5372 4.42239 -0.0439917 0.309204 0.0528253
11 H 20.2181 4.41334 13.2494 -4.01563 -16.386 -13.9639 -0.225162 -0.406603 -0.236184
12 H 18.4712 4.27662 13.0707 -29.2721 -1.93782 7.02536 -0.307491 -0.0935749 -0.038512
13 H 19.3044 3.6643 14.5638 20.2023 -29.4189 2.70895 -0.115407 -0.179015 -1.29992
14 O 10.1123 14.9119 12.3645 2.59238 0.52087 -3.37301 0.847066 0.875896 -0.0860299
15 C 9.87347 15.87 13.4444 3.81534 4.16268 -2.03018 0.362617 -0.578073 0.277151
16 C 10.9764 16.9106 13.4922 -8.1394 0.304162 -1.668 -0.713183 0.157617 -0.18159
17 O 10.8203 17.8307 12.357 -1.56099 -4.90952 3.20376 0.755739 -0.670251 -0.514225
18 C 10.7961 17.842 14.689 4.02667 5.37251 -3.67092 -0.398495 -0.0533606 0.954048
19 H 9.58406 14.1028 12.4643 -11.1584 -42.8207 15.4376 -0.612204 -0.651292 0.397899
20 H 8.93683 16.3762 13.228 -2.22797 -15.8733 23.7707 -0.376398 0.0564165 0.380233
21 H 9.94527 15.3876 14.4451 -5.83583 -8.75054 15.2577 -0.691447 -0.145506 -0.45
22 H 11.9064 16.3123 13.5543 8.31711 15.9419 12.5246 0.218896 0.766385 -0.399463
23 H 11.0618 17.3384 11.5249 3.31489 -6.04845 7.49422 0.0615856 0.125232 0.440194
24 H 11.2095 18.7979 14.3776 -25.9949 -8.53423 29.2816 0.391346 0.0763996 0.402445
25 H 9.72494 18.0765 14.8743 -16.3944 -10.1676 6.06357 0.260556 -0.279138 -0.168593
26 H 11.2099 17.4769 15.6615 -0.194627 16.6664 5.74783 0.0374267 0.124982 -0.725227
27 O 12.7818 11.9672 10.591 -3.44486 0.775613 -3.20251 -0.0977287 -0.347987 -0.369434
28 C 12.3962 10.9099 11.5043 -3.50116 -2.33591 2.26001 1.11082 -0.0627828 0.878055
29 C 10.9488 10.8941 11.9538 4.75343 -3.58833 2.87307 -0.190417 0.145645 -0.319984
30 O 10.0835 10.9768 10.7509 -2.40987 2.16848 4.37705 -0.32491 -0.320721 0.889482
31 C 10.7674 9.5489 12.6916 -4.39599 -2.60485 -3.63496 0.404824 0.982781 1.23658
32 H 12.9065 12.8095 11.1081 1.78778 1.77075 -4.615 -0.299568 -0.146222 0.214496
33 H 12.6316 9.93317 11.0464 -17.401 -13.8392 9.51665 0.00272089 0.451086 -0.11671
34 H 12.9885 10.9862 12.4519 -17.6851 20.5082 21.9491 -0.0956516 0.0151502 -0.495246
35 H 10.7282 11.7607 12.6704 2.08616 3.84214 -17.5089 0.1844 -0.962874 -0.905134
36 H 10.2603 11.8158 10.2802 24.5992 -8.1813 2.35739 0.128064 0.0696351 0.0383947
37 H 11.4504 9.64998 13.5562 -7.90363 -4.3626 2.33752 -0.303191 0.0175477 0.0421831
38 H 9.77182 9.45328 13.1119 3.62353 6.04809 -14.3822 -0.356904 -0.171262 -0.136138
39 H 11.1161 8.62529 12.2429 3.3011 -1.21857 -6.1865 -0.219834 0.0592147 -0.886571
40 O 6.67274 5.79892 7.90202 -2.4788 0.747019 1.40036 -0.503841 0.598223 0.344835
41 C 6.96379 6.71869 6.82345 2.52567 -1.66941 -6.10213 0.181646 0.549172 0.120884
42 C 5.89338 6.72998 5.68517 2.01703 -9.93744 -3.86562 0.785218 0.495385 1.0246
43 O 4.54221 6.85574 6.31126 -2.13326 5.61673 1.06108 0.785496 0.124495 -0.374138
44 C 6.30758 7.8434 4.6977 -3.99246 0.458245 -5.10566 0.481991 -0.816729 -1.62514
45 H 6.27246 6.4232 8.59365 18.5287 -15.5972 -6.01732 0.361414 -1.08587 0.236338
46 H 7.00276 7.72014 7.32091 0.681977 8.15052 -14.5747 0.0118046 -0.169662 -0.712456
47 H 7.97757 6.51211 6.42873 -9.67833 -3.30077 8.39252 -0.362341 -0.130823 -0.0611782
48 H 5.97843 5.80101 5.13348 17.2263 -35.4513 -27.9421 -0.611368 -0.487975 0.185815
49 H 4.57661 7.53371 7.06415 1.8944 0.0552324 -10.7588 0.143483 -0.200847 -0.525684
50 H 6.64482 7.41628 3.68164 -3.82847 7.14617 2.7988 -0.845317 0.125298 1.06713
51 H 5.49565 8.5305 4.5035 7.78204 26.0392 -12.8758 -0.13946 0.429711 0.0443645
52 H 7.2422 8.33303 4.96876 4.50871 8.35242 6.85861 -0.134213 0.528931 0.571787
53 O 6.42232 6.55164 13.8406 4.1108 -3.53779 1.02677 0.960783 0.518908 0.7192
54 C 6.82319 5.75384 14.9997 3.71571 6.38428 -1.24341 -0.456261 1.70787 0.775875
55 C 8.35009 5.68607 15.2337 1.64182 -2.33661 1.00939 -0.338429 0.549144 0.481119
56 O 8.91586 7.06805 15.2236 3.49294 3.03873 5.43071 -1.50238 0.0898631 0.0412133
57 C 8.67574 4.94975 16.5327 8.32243 0.0485157 3.9969 0.806965 0.405687 0.761106
58 H 6.17948 5.975 13.1167 19.4074 -26.9454 -8.54064 -0.303044 -0.959447 -0.942054
59 H 6.37896 6.38105 15.8133 -3.48805 -8.96437 -5.1271 0.464757 -0.635416 0.136084
60 H 6.29418 4.78879 15.0571 -0.536848 40.9228 -8.14488 0.382209 -0.0345786 -0.278497
61 H 8.89765 5.24189 14.4387 5.83234 -16.3142 -28.512 -0.0575965 -1.00122 -0.999752
62 H 9.84755 6.9704 15.4538 -1.71064 -3.3583 3.13482 0.810754 -0.261439 0.377345
63 H 8.45051 3.9075 16.4696 18.9544 7.32916 3.61431 -0.650514 -0.807372 -0.24036
64 H 9.76969 4.9128 16.6719 -30.4977 7.34896 1.76401 -0.132106 0.301586 0.103241
65 H 8.215 5.34352 17.4714 -5.77587 2.37615 -15.1146 0.32951 0.10871 -0.907171
66 O 9.62767 3.55998 6.78867 3.063 0.518965 -0.405688 -1.46491 0.0193948 0.68475
67 C 10.6801 2.78637 7.42135 1.63437 0.499125 0.317181 -0.0411126 0.335006 -0.542926
68 C 10.3966 1.2825 7.50292 3.73429 -6.20816 2.64633 1.02339 1.0352 0.637349
69 O 10.1428 0.782985 6.16827 -2.45069 6.21932 2.11357 -0.767727 -0.801047 0.4619
70 C 11.6702 0.695358 8.14756 -1.97703 2.85142 -2.06242 -0.494898 -1.33823 0.56265
71 H 8.6833 3.45841 7.22479 -0.159295 5.73805 -11.0133 1.60608 -0.247574 -0.573296
72 H 11.5295 2.98758 6.70381 -0.983263 -0.646937 -9.15707 -0.296878 -0.417778 0.935573
73 H 10.9197 3.08987 8.46241 -29.3867 -4.67597 -1.62276 -0.051574 0.264927 -0.752459
74 H 9.53363 1.09472 8.18182 32.9747 -10.5585 -6.69228 0.107699 -0.0504083 -0.708711
75 H 11.0037 0.704069 5.731 28.094 33.6016 19.8467 0.811465 0.279718 -0.410618
76 H 12.6052 1.14127 7.86388 -6.3364 2.77691 -24.5109 0.26435 0.353473 -0.652159
77 H 11.7008 0.789708 9.25086 9.1953 -0.699856 -29.7246 -0.554559 -0.109 -0.42924
78 H 11.7128 -0.36855 7.87409 2.25709 16.0927 28.7183 0.0829058 0.0854301 0.243691
79 O 7.31734 4.41969 2.88279 0.101435 -0.619451 -1.49935 -1.08744 0.522518 -0.224826
80 C 8.18981 3.57319 2.13839 -1.99903 0.619752 -0.337854 0.360005 0.0880823 0.327705
81 C 8.87842 2.60554 3.16406 3.55265 -4.1585 3.15024 0.565843 0.490123 -0.0670676
82 O 9.87326 3.28756 4.05243 2.65982 2.11542 4.77004 0.384242 0.308102 0.277572
83 C 7.83229 1.96048 4.03467 -1.78509 2.39117 0.415376 -0.143343 -0.37603 1.20664
84 H 7.83276 5.18962 3.15118 0.0697834 1.40889 -7.21598 0.597351 0.637127 0.225767
85 H 7.50727 3.04389 1.42874 -12.4886 11.8838 -21.8779 0.724538 -0.125589 0.26907
86 H 8.93951 4.18328 1.5636 -2.00344 18.4155 36.5512 -0.348036 -0.529901 0.330829
87 H 9.53235 1.98376 2.54207 20.9652 -0.435615 -33.456 -0.400444 -0.61371 0.163527
88 H 9.76503 3.14612 5.07883 -4.33123 -10.3128 8.37589 -0.448483 0.217841 -1.48485
89 H 7.17829 1.30752 3.43843 3.3558 3.28814 16.1175 -0.264671 0.354945 0.300785
90 H 8.25441 1.3421 4.84054 -11.8076 9.64368 -22.6304 0.380457 -0.28064 -0.442396
91 H 7.35369 2.7547 4.68015 -18.6656 38.9138 -8.30954 -0.0402245 -0.482534 -1.34293
92 O 12.1069 16.4364 10.3515 -7.24382 3.51527 -4.53413 -0.471226 0.233552 -1.00958
93 C 13.2754 15.5972 10.3252 2.58011 4.44112 0.345417 -0.421177 -1.43756 0.943093
94 C 13.5779 15.1264 11.784 -5.68915 0.227691 3.40348 0.978288 0.826321 0.0107026
95 O 12.6882 14.1247 12.285 -0.508858 6.37368 -3.03948 0.419228 -0.781414 -0.172761
96 C 15.0361 14.6318 11.9735 -2.61701 -0.874341 -9.3523 -0.426912 0.0870368 -0.233074
97 H 11.712 16.3647 9.44584 -40.0619 -11.2811 11.4975 0.197276 0.0102004 0.421989
98 H 13.088 14.7341 9.65938 -10.3823 10.4546 9.00085 -0.0132375 -0.00729835 0.258523
99 H 14.1196 16.1066 9.92738 10.4193 12.0682 10.2405 0.885414 0.763821 -0.293006
100 H 13.5305 15.9869 12.4595 -7.51302 17.0209 -9.27228 -0.345683 0.45386 -0.192037
101 H 11.7513 14.4101 12.1843 -4.11665 -14.3681 16.8925 -0.575617 0.339212 -0.00298847
102 H 15.1315 14.3599 13.0684 2.63018 -6.95575 -2.55811 0.18272 -0.226207 -1.15312
103 H 15.1693 13.8026 11.226 -0.351668 15.1771 20.5394 0.39875 0.298154 0.943131
104 H 15.7499 15.4702 11.7591 9.40749 -5.56986 -4.73064 -0.37405 -0.65621 0.0164384
105 O 17.4727 9.10243 13.1474 -0.140849 -2.81511 -0.364986 2.19064 0.0613412 -0.147381
106 C 17.2405 10.5097 13.4452 3.53356 0.394057 0.928456 -0.464235 -0.862159 0.341324
107 C 18.0325 11.0559 14.6815 -6.5885 -2.05654 0.82152 -0.472179 -2.15768 -0.440205
108 O 19.4822 10.7514 14.513 -5.82842 4.56795 2.36644 -1.02083 0.479355 -0.702612
109 C 17.8051 12.5061 14.8416 3.16369 -1.03246 -2.4804 0.501706 0.832341 1.51974
110 H 18.4637 9.07773 12.9162 -12.1359 -0.482325 -29.4032 -1.67785 -0.0883464 0.331826
111 H 17.457 11.0903 12.5553 -0.319984 5.80058 4.13183 0.184542 0.439508 -0.250363
112 H 16.155 10.4715 13.5988 -21.6075 5.9426 12.1056 0.0428314 0.768899 0.382295
113 H 17.6676 10.4931 15.5711 -5.9165 -12.5937 10.4987 0.455309 0.157587 -0.306611
114 H 19.6742 11.2696 13.6734 -2.72806 -9.44056 -5.79301 0.599432 -0.31748 0.763217
115 H 16.7338 12.7287 14.9862 6.16349 -7.27344 21.7255 0.308008 0.0667474 0.204625
116 H 18.4523 12.8141 15.7253 -19.5341 4.06567 -8.0712 -0.948555 0.198579 -0.735611
117 H 18.1611 13.0235 13.9719 -2.31416 28.5239 -4.77517 0.201124 0.52537 -0.6248
118 O 18.3947 0.330825 2.65317 0.327698 0.661016 1.82716 -0.347588 -0.935933 -0.0987174
119 C 17.9192 1.4684 3.39438 -0.564852 -4.6615 -2.21546 1.74403 1.02143 -0.334872
120 C 17.4018 2.53219 2.41332 10.914 0.458627 2.68919 -0.347061 0.528771 0.289932
121 O 17.3106 3.86689 3.0081 -3.95232 -0.705381 -6.03469 -0.977753 -0.374641 0.594194
122 C 18.2425 2.69631 1.16045 3.24836 -1.961 -1.82917 -1.17523 -1.86525 -1.27399
123 H 18.6068 -0.339942 3.34356 15.1363 -6.45121 -5.13413 0.199067 0.0492931 0.107368
124 H 17.1783 1.19713 4.11637 -13.878 -35.7161 17.1422 -0.567584 -0.251423 0.387836
125 H 18.8036 1.89253 3.90839 17.9716 -13.1302 -15.1783 -0.267855 0.0587999 0.232865
126 H 16.3468 2.23695 2.25261 6.12826 -16.2193 -16.0474 0.318515 0.374286 -0.593178
127 H 18.1902 4.26131 3.15416 -0.996295 29.4508 6.03847 0.115921 -0.00658455 0.154632
128 H 19.2282 3.05657 1.39065 10.5497 16.2384 -16.4445 0.513616 0.120268 -0.0525603
129 H 18.3144 1.68205 0.659921 0.563229 -5.44323 8.66895 0.145082 0.930308 0.412631
130 H 17.712 3.34696 0.439031 14.3273 -6.21436 -22.5094 0.429772 0.0601532 0.386562
131 O 14.9085 7.85504 3.65435 -3.60083 3.08809 0.526356 -0.284524 0.175899 1.38067
132 C 15.4273 6.86902 4.60837 -3.45984 -2.20411 0.935117 -0.0621672 -0.329156 0.30357
133 C 16.7925 7.16799 5.22115 -1.78717 4.16228 0.221982 0.920892 0.305382 -1.25855
134 O 16.8113 8.38626 5.99207 -1.40793 2.56758 -3.30269 -0.131426 0.021084 -0.167964
135 C 17.447 5.98415 5.98004 5.2779 4.58259 5.25021 -0.58846 -1.17466 0.397386
136 H 15.2658 7.78838 2.74489 1.20214 12.7875 2.90887 0.411192 -0.270612 -0.408021
137 H 14.6805 6.77363 5.40969 14.3341 -8.40864 -24.6938 0.0132139 -0.0323278 -0.125936
138 H 15.5666 5.91439 4.11334 1.34685 4.75352 18.9727 -0.267394 -0.471091 -0.30312
139 H 17.4313 7.36888 4.34769 13.1551 25.3244 32.7513 0.191867 0.0876588 0.0350252
140 H 16.848 8.0625 6.90789 -3.29183 3.65144 -7.07908 -0.436401 0.342316 0.784835
141 H 18.1851 6.37658 6.67864 0.0803541 -27.8767 14.0561 -0.0182102 0.160979 0.315256
142 H 16.685 5.38182 6.57406 0.812521 16.8805 -1.04071 0.692461 0.526133 -0.522628
143 H 18.0444 5.29071 5.33568 -4.63997 15.0487 11.8691 -1.01279 0.537458 0.25449
144 O 3.95036 16.321 8.21267 3.24998 3.30699 6.67601 -0.55568 -0.539104 -1.14633
145 C 4.14347 17.4501 9.06316 -0.806154 2.69078 -0.377981 0.183131 0.583566 -1.11316
146 C 3.04592 17.7265 10.0442 2.72446 -7.43311 -6.02853 -0.864991 0.661662 0.0694905
147 O 2.9576 16.647 11.0274 -1.42046 4.29164 -2.0291 0.539637 0.634242 0.0238174
148 C 3.24245 19.1181 10.7461 -3.44469 -5.64588 7.1979 -0.463791 -0.527686 0.323492
149 H 4.13823 15.436 8.56522 -17.1722 -10.679 -12.644 0.0515415 0.179492 0.804284
150 H 5.07908 17.3882 9.58285 1.85412 -0.329462 -4.42118 0.877857 0.0375475 0.361912
151 H 4.16956 18.28 8.31624 0.940741 1.43129 3.95146 0.179166 -0.210299 0.769947
152 H 2.10125 17.6937 9.5114 -6.4787 -5.53147 2.71771 -0.437063 0.175274 -0.244924
153 H 2.41753 15.9218 10.5948 4.20587 -3.12835 -1.22667 0.245219 -0.475187 0.25875
154 H 3.83116 19.8083 10.1386 6.47967 -15.3636 5.03903 0.080688 -0.0475799 -0.195713
155 H 2.30106 19.66 11.0708 -10.4187 6.10954 13.4499 0.757461 -0.799229 -0.257514
156 H 3.84322 18.8345 11.6125 -4.27062 -24.2628 25.4944 0.038664 0.556328 0.39329
157 O 18.1723 15.6664 19.2902 2.93041 -3.74015 -1.36866 -0.339918 -0.935328 -0.553276
158 C 17.8897 14.6391 18.2425 -4.07001 -3.36866 -3.80792 1.4013 2.40744 -0.693033
159 C 16.6679 15.092 17.462 -2.35809 -3.42726 -6.25112 0.52438 0.00520787 0.0947883
160 O 15.4758 15.0958 18.3144 0.245904 -3.32385 3.57714 -0.515128 -1.20696 0.158781
161 C 16.7954 16.5849 17.0077 0.436868 0.938199 4.1761 -2.24928 -1.28711 1.79223
162 H 18.5836 15.141 19.9978 -30.4185 5.11179 -3.31696 0.413208 -0.0904469 0.479463
163 H 18.7881 14.6676 17.5191 -9.10112 15.4907 -10.9422 -1.01096 -0.368157 0.793492
164 H 17.7519 13.6715 18.6563 -8.48186 7.81415 -26.2426 0.023996 -1.02735 0.508782
165 H 16.6357 14.3521 16.6359 11.1133 -7.16455 -1.55179 -0.650242 0.367836 -0.0681202
166 H 15.1903 14.1794 18.6447 19.4799 -8.1997 7.79629 0.58506 1.12407 -0.603205
167 H 16.5087 17.121 17.9313 4.58593 -9.11702 -6.09181 0.254194 0.214803 -0.301237
168 H 17.744 16.8961 16.7109 -0.517394 -10.4286 1.52562 1.66064 0.292369 -0.744493
169 H 16.0052 16.7644 16.2972 6.05303 3.11411 -15.0285 -0.131134 0.307273 -0.68087
170 O 7.06061 14.6001 20.7846 2.21177 0.312081 -0.179408 0.685844 -0.0200048 -0.619452
171 C 8.0496 14.7861 19.6841 1.18064 -4.45244 -10.5445 -0.677861 -0.545544 0.0641563
172 C 7.41487 15.0496 18.3065 -0.0766151 -0.855344 -8.18876 -0.695849 -0.105099 0.350726
173 O 6.7879 16.3909 18.2515 2.78205 1.23711 2.05221 0.0294357 -0.616772 0.596246
174 C 8.36442 14.9446 17.132 -1.61657 -7.89647 4.35835 0.554208 -0.0752364 -0.814642
175 H 6.29566 15.1976 20.7054 15.0721 -5.82017 -29.663 -0.063923 0.416224 -0.112567
176 H 8.79801 15.5486 19.9193 4.40392 -18.1043 -1.8726 -0.0621275 0.187563 0.266754
177 H 8.51624 13.7982 19.646 8.29869 11.4719 -9.65607 0.278283 0.0540799 -0.0751624
178 H 6.58236 14.3096 18.2071 -3.64711 21.4059 -5.67987 0.562426 0.25485 -0.230628
179 H 5.92046 16.1973 18.7067 -3.41832 14.5264 3.18866 -0.244839 0.803392 -0.494708
180 H 9.11906 14.1381 17.251 10.0949 -17.0337 6.34104 -0.206042 0.39217 0.0696825
181 H 7.79077 14.735 16.2203 -30.3372 -2.01411 -9.26427 0.0897386 -0.135014 0.39075
182 H 8.85791 15.9114 16.8913 -4.46305 -8.30093 -2.18346 0.0482297 -0.322862 0.506109
183 O 3.73825 7.58519 1.44921 -0.591573 -0.385768 -0.681306 0.833559 0.714592 -0.0303113
184 C 4.81622 6.59895 1.21651 5.05991 3.78555 3.90858 -0.604292 0.644882 0.0717258
185 C 5.01917 6.32761 -0.281173 3.5729 -0.100068 -10.5017 -0.230365 1.13088 -0.0567362
186 O 5.31298 7.64702 -0.936774 1.64954 -0.384883 -1.00751 0.448683 -0.310322 -0.0157894
187 C 6.10373 5.29806 -0.464476 -3.3951 2.73121 -5.72354 -0.184252 0.437293 -0.813051
188 H 4.10865 8.49815 1.21525 -4.13623 11.7171 -5.53217 -0.354529 -0.866151 -0.0562565
189 H 5.77266 6.96513 1.64926 28.1118 -11.561 -13.4197 -0.324578 -0.166306 -0.0462745
190 H 4.48145 5.69657 1.74476 -10.7071 8.2269 6.78692 0.305967 0.079002 -0.127516
191 H 4.06055 5.97159 -0.728957 -2.96682 26.232 -5.66658 0.45249 0.340956 0.158401
192 H 6.2957 7.81831 -1.05464 -6.91175 1.65941 15.3843 -0.681787 -0.544653 0.088733
193 H 6.39434 5.2751 -1.53383 7.59322 17.4047 21.6567 -0.0222967 -0.0676658 0.556103
194 H 6.93728 5.50379 0.212817 -14.802 -9.64565 23.7938 0.172953 -0.196386 -0.139131
195 H 5.61548 4.36693 -0.234602 12.3162 6.73693 -8.44988 0.215168 -0.826167 0.270088
196 O 8.03082 8.36735 17.4742 2.23136 0.812032 -5.74012 1.14386 -0.35743 0.905496
197 C 9.42613 8.25331 18.1333 0.135228 -8.88817 -7.42435 -2.52839 -0.484894 0.477062
198 C 10.2364 9.42871 17.7733 2.89863 -6.04634 -3.48934 2.38223 0.382673 0.834141
199 O 9.85028 10.6803 18.3725 -4.46383 -3.54201 -1.90712 -1.11484 0.497308 -0.165707
200 C 11.6871 9.17324 18.2864 0.220081 -1.20139 0.695125 -0.98839 -1.00248 -0.477705
201 H 8.24478 7.9122 16.6249 -9.31506 14.8348 -9.19664 -0.428194 -0.00162345 -0.48453
202 H 9.20942 8.14401 19.242 17.874 17.3706 4.60961 0.619034 0.107455 -1.48983
203 H 9.92272 7.3657 17.6965 3.84553 21.446 -16.0083 -0.260565 0.178351 0.550139
204 H 10.2722 9.49022 16.6981 21.3911 -1.68855 9.64936 -0.155004 0.372921 -0.836632
205 H 10.4223 11.3957 17.9825 -32.7075 -18.7084 -20.7286 -0.132802 -0.226422 0.252755
206 H 12.2797 10.03 18.0897 26.1368 -3.73139 -0.308068 0.83675 0.826368 -0.0254288
207 H 11.6252 8.96558 19.3376 8.24851 -15.2009 -11.6721 0.221612 0.127806 0.818331
208 H 12.096 8.27828 17.8334 8.00359 1.83123 -13.0073 0.199844 -0.135739 -0.329049
209 O 15.991 7.68178 8.6278 2.20657 -3.26862 -0.493435 0.0809248 -0.465431 0.0376993
210 C 15.9762 8.6474 9.72498 5.34154 5.00672 -6.86674 0.273233 -0.368923 0.0174236
211 C 15.6039 10.0242 9.17436 2.74794 -10.6657 0.282306 -0.959367 0.178588 1.33335
212 O 14.1162 9.9816 8.85163 -3.86932 -3.62298 -4.11659 0.0281131 0.723315 0.301323
213 C 15.8801 11.1154 10.2946 -8.42641 1.38416 0.362264 0.244261 -1.89656 -0.394013
214 H 16.0496 6.67411 8.87518 19.552 11.8614 21.1228 0.1291 1.34538 0.437859
215 H 15.2295 8.3625 10.4793 3.51107 10.3231 10.9206 -0.0706349 0.0100766 -0.0914599
216 H 16.9326 8.71298 10.2926 -31.6715 17.4063 6.13077 -0.0848371 -0.0793027 -0.588741
217 H 16.006 10.1836 8.17744 3.93958 2.68555 4.44405 0.82836 0.265821 0.107887
218 H 13.643 10.7653 9.26578 -27.5665 8.51251 -8.51368 0.47863 -0.422306 -0.0318296
219 H 15.4099 10.8554 11.2664 38.4311 19.1074 -1.32478 0.204785 -0.0887844 -0.567687
220 H 16.9425 11.2789 10.4348 16.6621 -1.73234 4.55736 0.36763 -0.333358 0.0763146
221 H 15.5041 12.032 9.97963 -4.67803 20.2629 -14.0806 -0.941865 1.70741 -0.59283
222 O 0.304312 13.847 1.46645 1.27342 2.42823 -2.07588 -1.95963 0.441862 1.40177
223 C 0.471338 13.9352 2.92096 2.11715 -2.63973 -7.88428 -0.859353 0.0502362 0.873017
224 C 1.87667 14.1737 3.44711 2.16558 0.542169 0.730178 0.340158 0.143873 -0.091412
225 O 2.45152 15.3897 2.87687 -0.587339 1.64432 -14.5958 0.623973 -0.619922 0.366482
226 C 1.88304 14.1047 5.04371 -2.7518 8.15067 0.243528 0.287657 -1.65789 -1.14249
227 H 1.15214 13.9623 1.06651 11.7769 0.437091 4.96652 2.11537 0.182465 -1.06631
228 H -0.251138 14.6515 3.40677 30.1957 0.861895 21.0689 0.53315 -0.0540209 -0.818617
229 H 0.165549 12.9783 3.30932 6.07303 -17.027 6.83101 -0.136114 -0.612308 0.187836
230 H 2.54047 13.4021 3.02188 -7.08453 -0.538001 -38.4848 -0.220992 -0.0923766 0.363165
231 H 1.84702 16.1629 2.73283 -3.88245 -10.0546 7.57011 -0.564193 0.143913 0.092863
232 H 2.65758 14.7816 5.45576 -10.3842 7.51867 4.45165 -0.436117 -0.353633 -0.00330636
233 H 0.870245 14.2884 5.39982 -5.39067 -3.85361 0.622441 -0.0376126 0.533139 0.337978
234 H 2.06624 12.9871 5.29127 16.1612 -8.0481 -13.6454 0.10053 1.5571 -0.101973
235 O 14.0526 1.95007 9.65211 -0.94752 -0.0676266 0.950704 -0.322009 0.120108 -0.482544
236 C 13.7634 1.26409 10.8955 -2.30515 -5.8891 2.96851 -1.25638 0.438857 -0.116541
237 C 14.9697 0.529896 11.4102 0.427107 -2.9386 -2.04475 1.08312 -0.683146 0.390122
238 O 15.7315 1.41891 12.3158 6.66474 -1.46003 -7.94545 0.763484 -0.754669 -0.686494
239 C 14.5473 -0.870419 12.0324 -3.47652 2.20573 6.91503 0.532509 1.33901 1.75789
240 H 13.514 2.80013 9.61329 7.26366 25.0467 -10.6171 0.517332 -0.388506 0.294712
241 H 13.5241 2.04814 11.6125 17.4243 3.04891 4.52377 -0.285173 0.0632599 0.36929
242 H 12.857 0.582114 10.8374 -2.28237 24.8257 4.78008 0.85198 0.567738 -0.271339
243 H 15.6949 0.341446 10.5771 -5.13639 -25.7945 13.26 -0.628653 0.149405 0.619952
244 H 15.1865 1.712 13.0812 15.7869 -5.92014 26.0024 -0.423557 0.0195428 0.221711
245 H 15.4311 -1.51561 12.083 24.835 5.82491 -23.2479 -0.1841 -0.240485 -0.358736
246 H 14.1963 -0.782738 13.1399 -17.9765 -1.15648 -0.413198 0.228354 0.159467 -1.71138
247 H 13.7428 -1.21358 11.3967 -13.115 -3.70941 -30.6969 -0.191208 -0.746842 0.0855437
248 O 13.1441 4.51321 9.80799 -3.81955 -4.15261 0.940762 -0.757663 0.585898 -1.31344
249 C 13.9811 5.2784 10.7017 -2.42872 -5.36904 -7.71191 0.719507 -0.505623 0.38862
250 C 15.4891 4.81961 10.5255 6.54874 -3.87507 8.25301 -2.03201 1.05577 0.188173
251 O 15.9183 5.11664 9.16502 8.06679 -0.948884 0.0298199 0.725472 0.338251 -0.349766
252 C 16.3246 5.53579 11.5154 -3.29551 -2.93624 -0.599266 2.08043 -0.122765 -0.57807
253 H 13.087 5.06288 8.94672 9.89583 -30.0098 9.88592 0.193759 -0.59492 0.731519
254 H 13.8521 6.3567 10.4709 -21.9336 -0.148432 21.6916 0.0453649 -0.504506 0.1802
255 H 13.6135 5.07125 11.7325 1.77497 16.6784 -7.94243 0.426861 0.127645 -0.428544
256 H 15.582 3.7707 10.6572 14.8077 23.5106 -4.56994 -0.119404 -1.07146 0.208483
257 H 15.2991 4.74695 8.50975 12.8879 9.97018 -12.741 -0.316495 -0.315324 0.0284339
258 H 16.4568 6.59985 11.3457 1.3126 4.83588 -1.30722 -0.0520584 0.248799 -0.3315
259 H 15.9419 5.42728 12.4882 10.1128 5.90435 -22.9554 -0.735499 -0.268945 1.43264
260 H 17.3115 5.03579 11.507 6.01241 3.68892 14.7761 -0.112395 0.388458 0.0237337
261 O 15.952 5.22818 16.7614 -2.12862 -0.402525 0.683081 -0.60945 0.271424 0.174296
262 C 16.6246 4.03707 16.3407 -3.10688 0.907928 3.13397 -1.58048 -0.421075 -1.05235
263 C 16.5482 2.86424 17.3677 1.55592 -3.55275 4.42449 0.293654 -0.50678 -2.51394
264 O 15.2314 2.2005 17.1429 10.0021 4.07429 1.64612 -0.310202 1.09612 0.506051
265 C 17.7186 1.8822 16.9929 -2.81331 -1.53886 1.53941 -1.89589 -1.00126 2.49793
266 H 15.2048 5.42697 16.1409 -7.38056 10.9574 -21.1772 0.318153 -0.111817 -0.130986
267 H 16.1261 3.67916 15.3754 -12.7701 -5.57675 -18.8263 0.429262 0.0438467 0.990238
268 H 17.5998 4.30598 16.006 5.3071 18.4831 -40.6314 1.33664 0.103243 0.312475
269 H 16.5165 3.1857 18.3855 -5.44693 2.25158 21.7877 0.422301 0.352464 0.591633
270 H 14.6196 2.91052 17.5374 3.82506 -0.689793 14.855 0.0494436 -1.14649 -0.230464
271 H 17.3737 0.835937 17.1473 0.620966 -5.91636 -22.0068 -0.181184 0.364265 -0.402928
272 H 18.0174 2.01622 15.9963 0.694781 -1.21702 -25.5691 0.700854 0.207133 -1.3259
273 H 18.5011 1.93669 17.7351 6.46134 40.5374 -3.61282 0.728676 0.559608 -0.0694438
274 O 20.1614 18.5401 13.2003 0.255109 -4.30384 7.1119 0.201237 -0.297834 -0.888249
275 C 19.7907 17.6355 12.0409 5.89245 -4.72153 0.910178 -0.828872 0.826741 1.41838
276 C 18.3044 17.2038 12.2856 2.47865 2.13675 -4.03568 0.69624 -0.829793 1.38999
277 O 17.8326 16.5575 11.1069 -5.05405 -0.47861 -5.06095 -0.605485 0.0241833 -0.661135
278 C 18.1944 16.064 13.4052 -2.43302 4.04572 5.39449 1.00745 0.538065 1.27654
279 H 20.9997 18.1595 13.5772 -3.32483 13.9254 -21.3944 -0.287886 -0.0503936 -0.102569
280 H 19.8992 18.1598 11.0858 3.88663 -16.1676 -5.91752 -0.0658122 0.284071 0.126822
281 H 20.4696 16.8016 12.0386 8.76631 -10.3373 5.54153 -0.0381282 -0.471623 0.0471991
282 H 17.7265 18.1044 12.6446 -11.6158 18.6992 -6.84798 0.157224 -0.628679 -0.656304
283 H 17.6665 17.2066 10.369 -12.4788 4.78061 1.81712 -0.0385326 0.00988412 0.100891
284 H 19.0109 15.2957 13.2587 -41.3792 -6.53004 -6.0557 -0.665084 0.624684 -0.0452752
285 H 18.3558 16.485 14.4654 -32.1215 7.8013 -10.2566 -0.121099 -0.294381 -1.31669
286 H 17.2244 15.5272 13.4499 -7.66209 -8.79254 18.8262 0.284231 0.400283 -0.453731
287 O 3.02562 6.24413 15.1573 4.34537 6.80934 -3.71413 0.238963 0.614526 0.23293
288 C 3.60692 7.55902 15.5113 4.09907 -0.391257 -4.65141 0.149151 0.779861 -0.38565
289 C 2.56105 8.68244 15.2408 2.96476 3.7104 2.31599 0.426987 -1.56787 0.355254
290 O 1.28131 8.16118 15.7519 0.277351 4.61103 -1.34558 0.328754 0.56406 0.125352
291 C 2.97118 9.99303 15.8855 0.593193 0.466193 -1.20875 -1.40312 0.267855 -0.193343
292 H 2.07924 6.28097 15.4607 -3.88379 -0.715512 4.33923 0.479403 0.0138968 -0.0613679
293 H 3.95206 7.64825 16.557 8.15085 8.76244 -2.66708 -0.369789 -0.652638 0.00433433
294 H 4.52325 7.76128 14.9006 8.06581 -12.2176 14.182 -0.655418 -0.53087 0.0448711
295 H 2.4409 8.75328 14.1703 8.80494 -25.6899 8.10247 0.0161652 0.330424 -0.596502
296 H 0.734836 8.95728 15.6243 19.8765 7.72155 6.36853 -0.858124 -0.0244306 -0.0753427
297 H 2.04206 10.5692 16.1374 8.54002 10.1169 -8.52903 0.767662 -0.289212 -0.195947
298 H 3.5329 9.81654 16.7912 19.6389 21.4794 -22.2669 0.385686 0.112776 0.407813
299 H 3.52051 10.5466 15.1401 -7.89292 -0.681965 -19.4108 0.556456 0.462129 -0.0210342
300 O 4.18745 16.1641 18.8459 3.89094 -2.13032 -2.06291 0.880428 -0.607566 0.448849
301 C 3.45184 15.1834 18.1171 -2.77752 1.06549 -1.57469 0.0853233 0.0929453 0.63955
302 C 3.67247 13.8347 18.7863 0.033663 2.3863 -0.17986 0.616543 -0.460377 -0.172789
303 O 2.93304 13.7526 20.0641 1.97648 1.64769 1.28792 -0.499296 -1.3934 -2.01573
304 C 3.06018 12.7744 17.8705 -8.56034 2.31016 -6.18778 0.357145 0.340883 0.149797
305 H 3.70719 17.0018 18.8196 26.0345 1.42457 -3.5085 -0.613141 1.14455 0.177839
306 H 2.39335 15.4595 18.0728 -15.9005 11.1773 -3.04887 -0.297035 -0.252795 0.290389
307 H 3.78358 15.1581 17.0958 23.5025 9.79508 7.48512 0.464541 -0.224802 -0.814398
308 H 4.80214 13.6952 18.9858 -18.9697 18.3027 2.6839 -1.51514 -0.0755529 -0.249244
309 H 3.33575 14.3594 20.6456 7.54283 -0.756416 -22.439 0.973176 1.89615 1.75378
310 H 3.71771 12.5325 17.0369 -5.1326 -14.9162 -24.0792 0.178795 0.132051 -0.0189762
311 H 2.89548 11.863 18.4457 -5.32727 -9.31181 -4.81427 -0.3349 0.0352273 -0.0697647
312 H 2.16471 13.279 17.4695 7.83644 -11.6089 14.7043 -0.252813 -0.823605 0.027437
313 O 6.97695 11.4977 -0.511526 7.60302 0.0795264 8.2842 1.1672 0.086832 -0.94602
314 C 6.80795 11.2772 0.890903 6.08188 3.47446 -1.31989 -0.216473 0.106722 0.0956947
315 C 5.30968 11.2706 1.20506 -1.1182 0.476569 -4.18295 -0.873142 -1.25881 0.778853
316 O 4.54596 10.2857 0.33793 -2.01907 -5.14652 -0.998896 1.55218 -0.343039 -0.316701
317 C 5.09719 10.8149 2.6916 0.963942 -0.185377 -4.2212 0.361259 0.421441 -0.833242
318 H 7.92712 11.2899 -0.798202 -14.047 -28.8379 -31.9949 -1.00868 -4.73259e-05 0.574355
319 H 7.32148 10.3195 1.196 5.61005 -0.409137 11.836 -0.523774 0.661316 0.0678898
320 H 7.15194 12.1374 1.4849 5.3546 25.7592 -16.0589 0.608258 -0.0713995 -0.0129895
321 H 4.78485 12.2232 1.10078 -3.2171 17.5282 -5.40938 0.348758 0.110685 -0.458811
322 H 5.22309 9.79611 -0.245618 10.7813 13.6047 -7.51228 -1.12761 0.798967 0.801055
323 H 5.45944 11.5332 3.44515 2.56424 5.94506 -4.7469 -0.251405 0.0780589 -0.273938
324 H 4.06914 10.516 2.83794 5.93361 28.4743 5.74247 -0.493036 0.211015 0.216723
325 H 5.68664 9.93457 2.79306 -27.0613 4.31643 12.2914 0.572372 -1.02614 0.364569
326 O 8.17155 0.409845 10.7183 -10.4226 -0.639833 3.24066 1.30715 0.342697 -2.09459
327 C 7.58738 0.799902 11.919 -6.07638 -3.38447 5.41895 0.238399 0.564115 0.764106
328 C 8.28591 0.207187 13.1056 7.27966 -5.70468 2.71387 1.36795 -0.678379 0.355889
329 O 9.69488 0.819237 13.2095 -2.00758 3.66708 2.63282 -0.241945 -1.27546 -1.31048
330 C 7.53805 0.56907 14.3609 2.54932 4.71177 -2.68796 1.57143 1.04078 0.272879
331 H 8.72567 1.19188 10.4222 -14.3057 -1.39869 21.7206 -0.282422 -0.506435 0.0393836
332 H 7.61787 1.90386 12.0508 1.95541 19.8496 -23.4417 -0.160519 -0.34333 -0.159076
333 H 6.5786 0.448769 11.8815 -5.31463 8.52837 4.97744 -1.01689 -0.179315 0.290055
334 H 8.37997 -0.908273 13.0466 19.0942 -9.03811 -17.3921 0.154944 0.696186 -0.26023
335 H 10.3327 0.227558 12.6553 15.6613 -15.1632 16.0014 -1.48957 0.696166 0.971419
336 H 7.96672 0.0424811 15.2063 -31.1238 -21.5188 -5.2077 -0.0792372 -0.189325 0.350066
337 H 7.73638 1.65004 14.5048 -6.00567 16.4047 -4.97492 -0.434581 -0.1905 0.18843
338 H 6.50237 0.37359 14.2536 -0.92045 -21.9484 -3.17693 -1.18395 -0.214376 0.0386609
339 O 8.87544 2.97029 9.95043 -5.38376 0.844312 -1.4182 -0.752123 -0.635345 -0.572465
340 C 9.60882 4.18634 10.2055 3.4392 -1.09846 -0.418089 -0.454627 -0.448858 -0.313076
341 C 9.47007 4.55258 11.6698 3.39713 -2.14672 0.0570747 0.385389 2.36211 0.3735
342 O 10.0372 3.61554 12.6002 2.36749 0.846794 5.96895 0.223122 1.13959 -0.076883
343 C 10.2751 5.91256 11.8594 -4.50487 -5.0577 3.22657 -1.61249 -0.815631 0.752723
344 H 8.06452 3.08761 9.33943 -3.60252 13.2565 27.3062 1.1815 0.0252435 0.635377
345 H 10.6508 4.08967 9.86824 16.8224 -0.0831998 -5.84925 0.0216199 -0.153265 0.540154
346 H 9.19163 4.97247 9.57957 -6.74999 7.85757 7.20279 -0.277687 0.438732 -0.00607669
347 H 8.38887 4.80598 11.8577 15.1504 -9.0369 1.17902 0.612655 -0.576928 0.196679
348 H 9.59566 2.76721 12.5237 -7.37456 5.79949 -5.47045 -0.285544 -1.29294 0.0174926
349 H 9.82172 6.61466 11.1804 -21.5473 3.28127 -7.08116 -0.119144 0.584088 -0.197036
350 H 10.2142 6.31945 12.9 -33.9634 5.46418 -23.0299 -0.0217713 -0.4734 -0.709821
351 H 11.2727 5.73031 11.5456 13.1468 11.1455 28.799 1.16484 -0.028878 -0.0667251
352 O 12.4337 6.73694 3.16755 -3.04324 6.36134 5.73937 -0.717493 0.540723 -0.149761
353 C 11.4643 7.80344 2.8373 3.05349 -5.35166 -1.23934 0.882324 0.88102 0.597973
354 C 10.1559 7.23211 2.33094 4.88338 5.97619 3.35915 0.925462 -0.977956 -0.872607
355 O 9.54757 6.22421 3.19578 2.52643 1.59794 -1.09439 0.129761 0.363909 0.259839
356 C 9.09175 8.24074 2.14483 4.98723 1.17001 -2.07248 -2.75415 1.58146 -1.11177