ITEM: TIMESTEP
10000
ITEM: NUMBER OF ATOMS
832
ITEM: BOX BOUNDS pp pp pp
1.3479080067038396e-01 1.9613609199329868e+01
1.3479080067038396e-01 1.9613609199329868e+01
1.3479080067038396e-01 1.9613609199329868e+01
ITEM: ATOMS id element xu yu zu vx vy vz fx fy fz
1 O 7.54798 3.72864 17.304 0.566433 1.54097 -2.18761 0.827034 0.351262 -0.379876
2 C 7.14001 2.8938 16.201 -3.88149 -2.18507 2.56231 0.796627 -0.839599 0.0432895
3 C 5.73181 2.35513 16.3333 3.83961 3.18465 2.3272 -0.149963 1.60203 -0.46565
4 O 4.82824 3.4307 16.8144 7.51531 -8.38252 2.71184 0.209591 0.66157 -0.166465
5 C 5.24991 1.93744 14.9807 -1.06775 8.08443 -7.76053 -0.557761 -2.36037 0.303968
6 H 7.03512 3.63419 18.1615 -11.6648 14.9394 -1.59896 -0.102213 0.0260372 -0.407691
7 H 7.21602 3.44443 15.2479 15.7344 -1.7689 37.1852 -0.039374 0.380709 0.31612
8 H 7.85339 2.03901 16.0506 -15.9193 -14.1535 13.9464 -0.365721 0.404468 0.419911
9 H 5.60334 1.59045 17.0582 -15.8265 -23.3865 16.8165 0.217994 -0.921164 0.767386
10 H 5.23558 4.3138 16.5966 39.6904 -26.1113 0.195724 -0.211988 -0.477379 0.21531
11 H 5.03278 2.78645 14.4074 10.3732 26.7949 -25.3318 -0.316581 1.4252 -0.970956
12 H 5.99026 1.31734 14.4404 7.59509 3.49508 2.98846 -0.238393 0.0545455 0.24634
13 H 4.31171 1.36112 15.1358 12.1578 7.27977 27.2421 0.427997 0.108967 -0.459565
14 O 3.69802 14.9197 6.20835 1.01579 -3.24194 2.96483 2.4402 1.05917 0.540393
15 C 4.43851 14.7576 7.51518 -5.71141 3.66197 -4.54702 -1.09223 -0.817339 -0.444202
16 C 5.64258 15.6695 7.62993 3.27582 -1.59081 -0.357626 -0.595922 0.755045 -0.123033
17 O 5.28572 17.1014 7.33069 -2.29166 5.27492 0.939378 -0.0374765 -0.362668 0.170914
18 C 6.38057 15.4616 8.9533 -0.948584 -6.2909 1.11268 0.772757 -0.610037 0.666857
19 H 2.96723 14.3164 6.26167 28.6004 1.77882 -15.4071 -1.7704 -0.894817 0.0791728
20 H 3.65486 14.9302 8.26292 10.5909 -18.7674 -28.2935 0.387813 0.211897 0.469727
21 H 4.79498 13.7067 7.61789 5.45768 3.23139 7.25282 -0.208873 0.487241 -0.235155
22 H 6.3263 15.3869 6.88246 -18.2505 -0.12596 14.9364 0.833067 -0.179484 -1.32565
23 H 4.29945 17.1386 7.24251 22.727 -9.93317 6.53801 0.414619 0.0866953 0.319224
24 H 5.76439 14.677 9.47212 -27.8249 25.49 6.97697 0.571564 0.855742 0.375459
25 H 7.40969 14.9297 8.80272 35.2665 -10.4692 3.80968 -1.57375 1.2305 0.0679478
26 H 6.51433 16.4416 9.52234 -5.97698 21.3626 5.44175 -0.165315 -1.36286 -0.371963
27 O 7.4707 8.72586 12.1472 2.04297 1.9491 0.870244 -0.268484 0.875998 -0.106648
28 C 8.34353 7.84852 12.8215 -0.166939 -9.26149 6.07312 -0.191485 -1.38498 1.41002
29 C 9.55113 7.35767 12.0827 -0.802314 -6.69407 -7.35801 0.0869166 0.441992 -1.04027
30 O 10.5379 8.46223 12.0177 -1.44288 4.21104 1.62202 -0.117452 -0.310386 -0.56884
31 C 10.216 6.17408 12.6801 -6.93986 1.91412 -8.88227 0.416717 -1.71012 -0.749992
32 H 7.94417 9.45534 11.6678 -3.94095 19.8711 -14.1693 0.119657 -0.294008 -0.0286758
33 H 8.76389 8.23345 13.8159 9.31748 -12.9447 18.33 -0.845364 -0.242351 -0.937837
34 H 7.69247 6.92736 12.98 -4.0973 -18.514 -29.6125 0.761707 0.881772 0.378807
35 H 9.25845 6.9945 11.0765 7.99014 3.13764 -19.4867 -0.0333607 0.838812 -0.0481015
36 H 11.2581 8.08774 11.4454 -32.0859 -38.7468 -24.5553 0.256854 0.370005 -0.00419332
37 H 10.9608 5.7768 11.9696 0.255806 29.9953 -1.03703 0.306585 0.374009 0.114175
38 H 10.6855 6.32662 13.6169 8.62452 -10.7623 1.43394 0.47521 0.376668 1.12718
39 H 9.57078 5.3073 12.7556 -2.87602 16.2969 5.75105 -0.735117 -0.143438 0.31797
40 O 6.01214 11.8114 6.8205 -4.81356 -7.13504 5.07358 -0.521672 -0.763227 -0.649818
41 C 5.67179 11.0914 5.57271 1.49996 1.82119 -1.48433 -1.20385 -0.845118 0.937722
42 C 5.1739 11.9676 4.46015 -5.31701 0.379965 4.97759 0.60595 -1.65031 -1.36974
43 O 6.32219 12.7094 3.95865 -1.2887 -6.32252 -0.614577 -0.934235 1.29071 0.0605008
44 C 4.51279 11.0643 3.3295 3.94219 -0.826825 -5.53192 -0.202978 -1.46341 1.35127
45 H 6.81616 12.2975 6.59785 7.08631 -12.7318 -34.8098 0.682011 0.56391 0.0304182
46 H 6.47027 10.4033 5.28182 3.01611 1.15947 26.0728 0.416804 0.366695 -0.188981
47 H 4.83039 10.4107 5.78143 -2.89712 -10.6589 18.8617 0.100987 0.180515 0.583544
48 H 4.37284 12.5926 4.78639 11.0881 -19.3596 -1.4757 -0.229957 0.964212 0.550475
49 H 5.89498 13.6029 3.7909 11.7985 -23.7608 -8.78874 0.517594 -0.0968952 -0.136181
50 H 4.90458 11.2047 2.33774 -11.5075 -21.7791 8.44005 0.339069 0.103615 -0.378599
51 H 4.49772 9.95925 3.59782 3.19395 9.13983 -15.7607 0.876998 0.918723 -0.26664
52 H 3.44117 11.1623 3.3047 -9.84905 10.8644 -10.9163 -0.620816 0.909143 -0.304326
53 O 0.817952 13.1711 17.672 -3.48181 -0.0422751 10.0718 0.453828 0.6128 0.463645
54 C 0.381012 12.267 16.6637 -1.9208 2.0891 0.815769 -1.71888 -1.05106 -0.621771
55 C 1.44439 11.8576 15.6289 6.51319 -0.42544 8.25014 1.27854 -0.552026 2.12022
56 O 2.36939 10.8096 16.424 3.50136 7.31035 -3.83401 -0.647 0.325229 -1.62643
57 C 0.875048 11.1081 14.4157 -2.06437 8.41835 1.73354 0.80149 0.0996304 0.103932
58 H 0.307325 13.0078 18.4969 10.9256 -12.2963 -4.6571 -0.280701 -0.431697 -0.150993
59 H -0.0894489 11.3857 17.1736 3.94483 8.98997 0.631728 0.873849 0.153179 -0.574809
60 H -0.509231 12.6771 16.1459 16.6361 -4.67749 19.8908 0.466014 0.314104 -0.151097
61 H 2.19988 12.6517 15.4652 -19.2833 -7.97968 22.1594 -0.796577 -0.0123097 -0.593347
62 H 2.69711 11.2672 17.2163 -11.1661 12.2965 -1.3586 0.184335 0.417865 0.417037
63 H 1.59283 11.1244 13.5468 5.6462 -9.72859 -5.78212 -0.341917 -0.382146 1.03066
64 H 0.681811 10.1012 14.8549 -12.2355 -0.468286 18.2662 -0.159794 0.299888 -0.86049
65 H -0.0177995 11.6078 14.0028 -34.1226 3.47584 -30.9113 -0.0901473 -0.215585 0.432492
66 O 11.0566 14.3613 3.46564 -2.25823 0.228748 -2.86598 0.0918203 -1.01389 0.82564
67 C 10.3252 13.5228 4.48178 -5.37317 0.68602 1.95175 -2.21691 1.19249 -1.14401
68 C 9.44198 14.4164 5.41729 -0.798111 -3.31912 3.19438 0.74194 -1.03739 1.88955
69 O 8.25465 13.6364 5.93671 -0.583743 3.34023 -4.93286 0.0341205 0.480366 -1.04915
70 C 10.2032 14.9381 6.70275 -0.280651 5.25597 -6.10365 -1.71476 0.010725 -0.878579
71 H 11.9907 14.0102 3.52101 10.8511 -19.0761 14.4419 -0.38792 0.641074 -0.332525
72 H 9.58508 12.8229 3.99778 4.35783 15.5385 -15.7819 0.934999 0.526947 0.123226
73 H 11.0665 12.9969 4.98653 -38.4788 12.1708 -10.3088 0.996176 -1.11901 1.23827
74 H 9.09664 15.2714 4.90208 20.3073 8.06432 -27.3221 -0.52111 0.802925 -0.866465
75 H 7.5601 13.6312 5.20623 -3.11995 4.10273 -18.8659 0.751974 -0.201311 0.495476
76 H 10.5754 14.1085 7.25458 27.8302 -12.1969 4.41525 0.67061 -0.914722 0.35643
77 H 10.9936 15.6069 6.38074 0.757383 23.0469 8.81974 0.170728 0.360555 0.283637
78 H 9.44237 15.3956 7.38057 -24.83 5.48391 36.0455 0.565934 0.227048 -0.519638
79 O 19.0286 1.20528 1.87034 1.05667 -1.24118 1.98384 -0.196546 0.949931 0.88375
80 C 19.2157 0.352624 3.02263 8.15183 0.577223 0.803702 -2.43198 0.393783 0.591169
81 C 18.0679 -0.734677 2.91306 2.50339 -1.94195 0.0337773 1.36007 -0.247687 1.29271
82 O 18.3515 -1.65866 1.852 -1.31755 0.600718 -0.0208239 0.491235 -0.288279 -0.437627
83 C 17.9222 -1.58225 4.20152 -2.84292 -1.42977 -0.347826 0.109676 1.9928 0.424808
84 H 19.602 0.841329 1.19431 -4.56842 1.82904 -14.7085 0.740536 -0.322465 -1.26664
85 H 20.1792 -0.097154 2.99724 4.05969 -2.56839 -1.33252 0.953323 -0.653449 0.00742964
86 H 19.1224 0.95758 3.9878 1.65631 -14.3566 10.4407 -0.0370417 -0.5163 -1.11675
87 H 17.1118 -0.302524 2.70689 -18.0896 -4.66534 -1.07745 -0.643219 0.961733 -0.129381
88 H 18.481 -1.19026 0.993417 -21.1184 12.2376 31.5426 -0.257606 -0.175426 0.107097
89 H 18.8271 -1.56095 4.81553 -38.9689 -0.896009 12.8644 0.377528 -0.425079 -0.324715
90 H 17.1676 -1.15721 4.89479 10.1831 -16.5628 5.80799 -0.209577 -0.372794 -0.554683
91 H 17.6833 -2.52869 3.80403 28.1436 28.1912 -32.4094 -0.282561 -1.27154 0.338291
92 O 2.9341 6.40995 16.9575 -7.82401 1.02207 -1.55912 -0.368151 0.0511615 1.12323
93 C 2.17041 6.35537 15.7282 0.203613 1.07856 4.21733 0.693676 -1.27258 -0.502299
94 C 0.703007 6.60903 15.8933 0.158495 4.22873 -1.80294 -0.686318 1.22869 -1.17523
95 O 0.539801 7.92001 16.5157 3.58657 3.632 -5.48934 -2.14102 0.305534 -1.96935
96 C -0.0602582 6.6943 14.4693 -5.43208 4.26474 -1.45765 2.14423 0.551721 0.114343
97 H 2.52728 5.78052 17.6141 4.68373 18.628 6.79534 0.0462243 0.0893081 -0.41409
98 H 2.63899 7.08858 15.0579 15.6918 20.0419 8.60402 -0.253687 -0.116663 -0.0100341
99 H 2.32619 5.33439 15.3492 22.2529 7.66195 -2.24104 -0.077976 0.109412 -0.394481
100 H 0.169604 5.89171 16.4922 -25.5315 -14.7446 0.708876 -0.0343769 -0.741889 0.386573
101 H 1.0983 8.06622 17.2505 -9.3907 -20.4967 -1.16349 1.59803 -0.053826 1.66784
102 H -0.0743673 5.69958 13.9253 -0.56547 -13.5346 -27.6175 0.200239 1.01851 0.433813
103 H -1.06496 6.98494 14.7043 -1.16758 4.66454 9.4624 -0.6493 0.18438 -0.0720268
104 H 0.450374 7.55827 13.8428 -11.8179 3.77414 14.5945 -0.888103 -1.70977 0.878578
105 O 16.5863 2.28582 16.3324 -8.70734 3.76182 -4.83467 0.219815 -0.100734 -0.112397
106 C 15.7065 2.30078 15.1462 0.143254 1.00646 1.31644 1.16507 -0.691148 -0.312667
107 C 16.3589 1.67069 13.8719 4.32479 -2.12451 -5.7909 -1.77537 0.759851 0.00406014
108 O 16.8162 0.323639 14.0409 6.88887 -4.59252 2.25911 1.01176 0.382739 0.61726
109 C 15.1997 1.69842 12.8124 6.43964 -3.98471 0.359671 1.19114 0.379551 -1.27852
110 H 16.724 1.33645 16.5966 15.9216 20.29 -23.039 -0.18608 0.293914 -0.189855
111 H 14.8749 1.6875 15.4437 0.731651 5.87116 -22.0313 -0.812623 -0.0501492 -0.15235
112 H 15.4083 3.31527 14.8434 -4.96657 10.2239 -12.5401 0.0852673 -0.0519605 0.698567
113 H 17.1796 2.29076 13.4922 -29.3388 -12.8403 -22.7871 0.0872576 -0.0113522 0.190554
114 H 17.8371 0.429732 14.1771 16.8157 9.28267 -21.1082 -1.03306 -0.449515 0.0308705
115 H 15.3963 2.5641 12.1172 7.88733 4.34712 -3.60728 -0.196982 -0.818913 0.273165
116 H 15.2551 0.744103 12.2771 -13.6067 13.9187 -5.97956 0.0216433 0.172374 -0.378108
117 H 14.1686 1.79107 13.1208 -2.74165 14.0984 -5.59437 -0.293133 0.118631 0.869979
118 O 15.8707 11.8155 12.7017 1.64626 4.95544 6.70033 0.143167 1.48418 -1.40655
119 C 16.5416 12.3896 13.8486 2.59914 0.130582 -3.32618 0.268619 -2.94336 0.388857
120 C 15.6881 13.2134 14.72 0.474012 3.43228 12.3525 -1.32812 0.627284 1.10091
121 O 14.6706 12.3358 15.3766 -3.89797 -2.57459 -2.86012 -0.0496446 1.09579 -0.883061
122 C 16.5236 14.0998 15.7329 3.33957 -1.60252 2.51835 -0.93945 -0.415104 -0.843229
123 H 15.8032 12.5266 11.8984 18.4305 -1.09879 20.7888 -0.195181 -1.60769 1.77864
124 H 16.8827 11.4475 14.4673 12.1245 16.3872 5.57244 -0.205057 1.56995 -0.81059
125 H 17.3994 12.9581 13.5897 -0.964315 -22.8018 -1.27327 1.16263 0.516417 -0.535713
126 H 15.0477 13.8588 14.1227 16.1501 6.64612 -7.11099 0.176278 0.16623 -0.214234
127 H 15.1578 11.9065 16.0712 14.6442 17.2129 6.69767 0.813073 -0.625832 1.45005
128 H 15.8123 14.582 16.4449 15 8.5599 7.02975 0.516861 -0.239011 -0.357647
129 H 17.2486 13.4563 16.2885 11.9044 15.7674 -4.3389 -0.342228 0.65156 -0.447098
130 H 16.9763 14.8788 15.0549 -13.4905 -11.453 -11.5706 0.105653 -0.624453 1.04806
131 O 13.0738 5.94351 2.97252 -3.3184 4.72719 -6.9938 -0.668857 -0.183563 0.661085
132 C 13.8398 5.58375 1.7985 -1.71377 -6.00955 2.21081 -0.679244 -0.689428 -0.373663
133 C 15.2064 6.18464 1.86855 4.14195 -5.92481 1.18973 0.891869 -0.678873 -0.940978
134 O 15.917 5.70116 3.02435 5.55953 -1.90987 1.14449 -0.213273 0.10878 0.453929
135 C 16.0362 5.94935 0.53193 0.64384 0.932778 1.17359 0.303867 -0.33045 0.173904
136 H 12.2094 5.43152 3.03943 -1.65657 -6.5472 7.4057 0.782623 0.265422 -0.0472427
137 H 13.7805 4.50273 1.59337 -21.3531 4.95863 11.1166 0.400053 0.13322 0.260811
138 H 13.4161 6.07647 0.95697 -7.5413 12.5873 3.46882 -0.738384 0.296924 -1.02113
139 H 15.0401 7.24083 1.9244 -16.0781 -12.4147 -8.52964 0.084518 1.04865 0.213903
140 H 15.36 5.96631 3.81483 -25.8866 -2.06571 12.4414 0.706701 -0.246719 -0.423727
141 H 16.8821 6.65458 0.452358 6.38839 -0.24306 -9.46286 0.364673 -0.518385 0.695001
142 H 16.3508 4.86496 0.390389 4.49908 19.4073 4.46655 -0.26096 1.18575 0.248868
143 H 15.5679 6.2768 -0.404736 25.359 27.0399 3.09488 -0.976523 -0.382828 0.431397
144 O 7.71332 6.13552 8.48011 -8.22969 3.89991 6.93769 0.641812 -1.48187 1.37699
145 C 7.53165 5.25663 9.69082 -4.04567 7.04312 -5.9908 -0.745858 1.09462 -0.493814
146 C 6.54308 5.89116 10.6111 3.41547 -1.91728 0.437664 -1.27058 0.571429 1.25638
147 O 5.18266 6.04066 9.90803 4.7874 -0.311849 -3.97481 1.15476 -0.186461 0.155707
148 C 6.35408 4.92347 11.8609 -2.79968 -0.52595 -7.97843 1.12123 -0.432039 -2.44309
149 H 7.08703 5.83913 7.78047 -2.39638 -9.38554 -14.7314 -0.360238 0.184745 -0.383322
150 H 7.07946 4.31678 9.46512 -7.72458 -6.9912 -26.024 -0.159367 -0.976566 -0.991506
151 H 8.44183 5.02263 10.2341 23.0257 28.8731 19.0401 0.595389 0.527141 -0.291198
152 H 6.81961 6.88459 10.9332 -7.48663 18.8537 -2.68951 0.182932 0.378004 -0.0327784
153 H 5.34688 6.55721 9.07491 -35.71 -28.0452 22.7361 -0.141806 -0.122213 0.338835
154 H 5.70255 4.20807 11.366 -18.4632 -24.145 10.2243 -0.478416 -0.654575 0.633277
155 H 7.35997 4.3834 11.964 -9.50391 1.02321 -44.1916 -1.27245 0.752083 0.690523
156 H 5.90149 5.35212 12.7455 -1.92393 25.6726 8.10277 0.196242 0.137933 0.214751
157 O 8.81095 0.256949 14.6447 2.33062 0.775231 0.234061 0.832443 0.456129 -0.119104
158 C 9.77884 0.724995 13.633 4.59485 4.86666 -5.68961 -1.26053 1.66725 -0.570298
159 C 10.6829 1.93226 14.0787 3.26322 1.74095 1.28931 -1.43339 0.478516 -0.353147
160 O 11.5683 1.4765 15.0821 -5.15732 -1.50748 -7.53164 0.596851 -0.57151 0.681503
161 C 11.38 2.53665 12.867 2.71383 -2.84033 -4.16408 3.59093 -0.530349 1.01975
162 H 9.26535 0.277184 15.5333 -10.5104 -7.16272 -18.9843 0.101921 -0.25442 -0.399522
163 H 9.1379 1.09106 12.7457 4.86125 -14.7815 -5.16001 0.740845 -0.43392 1.08353
164 H 10.4055 -0.0653914 13.2577 -10.3553 44.7775 -4.73785 0.377624 -0.709198 0.0822336
165 H 9.99524 2.74928 14.4588 7.78672 0.638139 7.22841 0.334964 -0.651115 0.122562
166 H 12.1682 2.16836 15.4732 49.7574 25.9562 22.5499 -0.599883 0.285203 -0.316626
167 H 12.1308 1.85007 12.3791 -14.9307 9.78372 19.9263 -1.11716 -0.0543267 0.075064
168 H 10.7497 3.00116 12.1794 15.0547 -5.89358 8.7813 -1.27487 0.59462 -1.22049
169 H 12.1282 3.30413 13.2063 5.77846 7.33376 -11.5566 -0.841735 -0.148016 -0.000869555
170 O 8.33836 9.22232 -0.732567 -2.28908 -0.0735902 0.498903 -1.67522 0.171338 0.359951
171 C 8.72894 8.27415 0.29067 -4.39929 3.26557 0.776455 -0.720918 0.973269 -0.120523
172 C 9.93131 7.55723 -0.198885 0.560292 0.971849 2.04321 0.753868 -0.941881 -1.41314
173 O 10.7535 8.58644 -0.934712 4.06858 9.24321 3.85071 0.433837 -0.730367 -0.0516832
174 C 10.7401 7.03846 0.947717 -0.163918 -3.88561 -2.65746 -0.391479 -0.0740556 0.908269
175 H 9.19733 9.54276 -1.03138 7.49434 17.9654 4.99718 0.516589 0.650859 -0.553491
176 H 9.05093 8.84036 1.15519 -1.22491 16.6862 -8.53813 -0.132964 0.158872 0.562206
177 H 7.84317 7.69937 0.576483 0.905196 0.910782 12.516 0.252866 -0.368483 -0.207288
178 H 9.68809 6.71322 -0.951799 7.78059 5.50145 -7.04948 0.22345 1.1568 0.956807
179 H 11.6851 8.2518 -1.05638 -32.1246 8.78421 -10.1217 -0.709142 0.240918 0.293642
180 H 10.8842 7.73174 1.82389 5.72758 -10.9529 4.3985 -0.0976125 -0.284372 -1.16484
181 H 10.1963 6.20314 1.36757 5.55494 17.1812 -6.60729 0.260338 -0.629601 -0.136782
182 H 11.6608 6.76432 0.487699 11.717 9.35125 -1.39703 0.959085 -0.492863 0.382536
183 O 14.1083 14.957 18.8048 4.82133 -1.10441 -2.18848 1.27707 0.420014 0.326652
184 C 12.7933 15.3445 18.4506 11.0089 4.69076 -6.49392 -0.182083 1.02275 1.51717
185 C 12.2897 14.5165 17.3479 -7.18565 -0.419029 9.80713 -1.36979 0.0938754 -2.49547
186 O 12.5696 13.0922 17.5097 -0.631635 -0.217817 -0.402016 -0.741277 -0.356483 -1.17005
187 C 10.7607 14.6298 17.3073 -0.430212 -1.62544 -4.57544 0.204297 -0.371292 0.702879
188 H 14.1591 13.9801 18.8711 0.185141 -14.6939 -20.57 -0.101224 0.151421 -0.104237
189 H 12.1405 15.3674 19.3772 -3.75988 -11.0506 15.9258 0.264073 -0.588526 -0.816228
190 H 12.7558 16.4141 18.1216 3.39873 -1.07641 -7.13916 0.471227 -0.520808 0.0211916
191 H 12.688 14.8871 16.3385 -5.24609 -7.87004 -35.7628 -0.0270414 -0.511284 1.08278
192 H 12.0508 12.6585 16.7051 16.0859 18.5259 -6.916 1.22771 0.555165 1.17275
193 H 10.4924 14.1524 18.2755 -6.52011 -12.6267 -23.5544 -0.746356 0.335976 -0.532356
194 H 10.3462 15.6277 17.1944 -2.73556 2.63214 20.7969 0.332597 0.352363 0.372729
195 H 10.3771 14.0907 16.4599 -12.7518 -6.61314 4.83935 -0.255865 -0.680167 -0.336
196 O 17.167 13.6014 3.54635 -8.61631 2.03625 1.60463 1.07268 -0.0607457 -0.609542
197 C 16.305 13.4344 2.37933 3.436 0.231454 -4.4963 -0.928302 0.304183 0.310723
198 C 15.1211 14.422 2.48407 5.5198 1.46106 3.93299 1.04362 0.516737 0.214659
199 O 14.1334 13.8545 3.40685 -3.20767 -0.743136 2.72664 0.441632 0.730086 0.885244
200 C 15.5624 15.9164 2.76436 -4.95414 2.59594 -0.619468 0.073594 -1.6749 -0.572664
201 H 17.9508 13.0492 3.30667 12.8086 4.64367 -20.8247 0.0813214 0.118004 0.641641
202 H 16.9008 13.4335 1.47608 -2.6537 2.01857 -18.2534 0.0985261 0.609794 -0.472582
203 H 15.841 12.4604 2.40566 21.4858 4.89274 10.561 0.136373 -0.521426 0.189171
204 H 14.6512 14.4449 1.5521 8.22002 -22.324 23.184 -0.970152 -0.192113 -1.52567
205 H 14.5803 13.8414 4.30505 9.61215 -8.78799 0.560231 -0.410509 -0.094457 -0.668611
206 H 15.9654 15.8451 3.77658 20.8801 -22.9272 -15.1202 0.118856 0.714309 0.031629
207 H 16.3429 16.1729 1.9801 -10.3546 2.06633 2.73609 -0.738562 0.0215068 1.17805
208 H 14.6878 16.5784 2.67576 3.91051 8.79826 -1.12644 0.330784 -0.0958163 0.174131
209 O 4.82365 9.57757 -0.008907 5.23065 -2.8372 -5.13832 1.26978 0.119929 0.00561431
210 C 3.91895 8.45304 -0.152507 5.20345 -6.56795 -2.41009 0.70948 -0.0107639 1.15349
211 C 4.34447 7.25058 0.71104 -14.6417 -6.1786 6.77164 0.0663553 1.42712 0.199531
212 O 5.68474 6.83148 0.405133 2.01421 -3.17993 6.35644 0.565811 -0.601188 -1.28646
213 C 4.44872 7.74623 2.18652 -5.40856 3.17664 -2.65561 -0.45688 -1.89272 -0.0777568
214 H 5.77018 9.3271 -0.214546 3.98467 6.57253 11.6339 -0.901563 -0.0241509 0.123162
215 H 2.99515 8.75621 0.289417 -6.2821 5.53386 -6.11429 -0.783023 0.595877 -0.0347487
216 H 3.80469 8.28354 -1.18472 22.5148 3.97648 -2.89683 -0.245243 -0.73264 -1.29336
217 H 3.61474 6.45573 0.528606 0.261719 3.15739 -4.22626 -0.0116828 -0.303856 0.26981
218 H 5.82269 6.78018 -0.596842 -24.6937 12.316 -23.9172 -0.276382 0.157976 0.551179
219 H 4.71999 6.86385 2.80988 12.4597 21.1758 -11.3398 -0.219557 0.52558 -0.0757314
220 H 5.25897 8.44764 2.22588 35.2796 15.9545 5.9747 0.402194 0.529626 0.0773926
221 H 3.52143 8.19812 2.55337 -3.55141 13.8051 -6.34305 -0.00243112 -0.00460634 -0.0411892
222 O 8.09725 6.04501 4.55682 -4.49408 1.59607 0.32826 1.03621 -0.273181 -0.101251
223 C 8.88947 5.55929 3.34327 -1.10557 -2.83456 1.97647 -3.75149 -1.64353 1.46545
224 C 9.43527 4.13851 3.47022 0.532945 -6.04674 12.8984 -0.163705 -0.235939 0.550477
225 O 10.8123 4.26993 3.84612 7.24605 -7.06711 -3.17215 1.01782 0.652939 -0.0311673
226 C 8.71592 3.20305 4.4859 0.4359 -6.36922 -2.63771 -1.51339 -0.128265 -1.53219
227 H 8.78605 6.56863 5.07596 -27.8759 -29.1445 -14.3771 -0.49076 -0.320459 -0.168257
228 H 8.07671 5.47058 2.60043 -13.3268 9.76438 -15.9796 0.644776 0.771698 -0.296714
229 H 9.59058 6.31742 3.32441 25.9947 -16.1177 -26.3545 1.6642 1.07387 -1.01565
230 H 9.40611 3.65811 2.4955 -15.7695 3.10652 -10.6879 -0.134978 0.0069129 -0.484645
231 H 11.2357 3.39874 3.96372 14.8873 -11.6084 -11.0591 -0.0244387 -0.445915 0.270488
232 H 8.80262 2.16464 4.16685 -24.4781 1.86848 -14.8683 0.943916 -0.321163 0.310308
233 H 9.09989 3.42345 5.44891 -2.2189 -12.1232 -27.2315 0.295646 -0.0778764 1.08966
234 H 7.59188 3.20486 4.50468 17.0789 20.1827 4.11152 0.533577 1.00222 -0.0267459
235 O 14.423 15.6395 8.84583 0.722546 5.52243 4.399 -0.826505 0.00253118 0.304237
236 C 14.1236 15.3475 10.2367 2.28019 6.51306 -5.48489 -0.31633 -1.20393 -0.696888
237 C 13.759 13.8084 10.4768 5.24351 2.89891 -5.94562 1.75416 0.804201 -1.88092
238 O 15.0892 13.0274 10.5349 0.994864 6.97693 4.85033 -0.966029 0.341235 0.404344
239 C 13.0188 13.5742 11.7538 0.435509 3.63634 6.68637 -1.09314 0.258946 -0.852574
240 H 15.1869 15.0863 8.57273 12.7619 -0.434978 1.66014 0.407385 -0.161823 0.0721743
241 H 14.9698 15.6495 10.8183 18.9717 8.05715 -8.25035 0.648955 -0.0381895 0.835411
242 H 13.2796 15.9527 10.5653 -7.10901 -13.2482 -2.71115 -0.268862 0.129459 -0.198518
243 H 13.2782 13.5004 9.5137 15.0579 9.75677 -12.6107 -0.0896513 -0.11295 0.821384
244 H 15.5363 12.9594 9.66956 -7.97861 -14.5537 3.71445 -0.0227377 0.474663 -0.435811
245 H 11.9658 13.9156 11.6635 -24.6091 1.71964 15.4041 0.517438 -0.255305 -0.143917
246 H 13.0054 12.5407 12.0433 9.18551 5.08982 -26.7022 0.167148 -0.4721 0.206484
247 H 13.4525 14.1965 12.4901 -4.16957 0.733677 -7.94689 0.547948 0.429529 1.23628
248 O 4.37863 11.7949 14.1202 -0.345731 -7.14265 2.52847 -1.3911 -1.02522 1.51879
249 C 5.75583 11.529 14.2982 4.03947 5.48926 -2.35797 1.94011 0.841645 0.781836
250 C 6.60278 12.8747 14.1287 -1.12479 -6.31284 2.63036 -0.485407 0.893616 -0.696989
251 O 5.92307 14.0212 14.8455 3.8788 7.35367 -0.141292 0.469302 -1.03571 -0.560295
252 C 7.98368 12.8235 14.8138 6.57392 -2.80196 -2.64174 0.637547 -1.11847 -0.6648
253 H 3.94167 11.2758 14.8801 14.0463 -3.57757 11.3264 0.00137951 0.875696 -1.19114
254 H 6.02124 11.2375 15.3299 9.83578 25.3057 36.9256 -0.534491 -0.200286 0.00502067
255 H 6.06638 10.6778 13.6796 -10.2098 13.3328 10.5198 0.332936 0.262306 -0.484024
256 H 6.67337 13.1009 12.9914 -14.8464 6.31833 -15.25 -0.0123762 -0.0813968 1.49373
257 H 5.00504 14.0692 14.5173 1.64485 15.4305 8.12206 -0.0770577 0.0699779 -0.237829
258 H 8.64843 12.1661 14.187 -11.4172 -18.0481 11.5387 -0.327177 0.265423 0.554801
259 H 8.52243 13.7895 14.8812 20.8884 31.4621 -19.9245 -0.599826 -0.119653 -0.0475219
260 H 7.90078 12.372 15.8301 -19.8927 27.5066 -17.0694 0.0525919 0.293645 -0.541631
261 O 9.97363 4.14081 8.47602 -0.946979 4.58904 4.701 -0.621573 1.29928 -0.408129
262 C 11.1331 4.44255 7.64913 9.34705 5.30648 -8.42131 1.24833 -0.946667 2.08123
263 C 12.0008 3.21 8.01713 -0.870126 5.65496 -3.02579 0.0904574 1.08254 -1.55322
264 O 13.1057 3.01014 7.08053 -4.91075 -2.27203 -6.05338 0.512179 0.409184 0.104797
265 C 12.3994 3.21132 9.44215 0.213937 0.796126 -1.26214 1.89711 -0.764538 1.63435
266 H 9.32593 4.86766 8.31796 36.2936 -3.19456 -5.78946 0.0472516 -0.148512 -0.0156359
267 H 10.9138 4.41809 6.62909 -20.6369 -3.25226 6.27628 -0.569571 0.112136 -1.84705
268 H 11.7041 5.37343 7.88209 14.0129 4.01365 -12.7938 -0.609656 -0.158596 0.136386
269 H 11.3935 2.38377 7.87164 31.2027 4.72889 -2.88844 -1.60328 -1.72025 -0.156916
270 H 12.7408 2.7443 6.18488 -16.7352 23.4183 -16.022 -0.00712427 0.0936773 0.725784
271 H 13.1441 4.03163 9.61686 -25.2106 5.64071 -16.7129 -0.602017 -0.250478 0.295553
272 H 11.5939 3.13945 10.2172 7.8898 -15.0872 5.35149 0.225116 0.729543 -0.951278
273 H 12.9577 2.27095 9.65221 6.63558 29.3736 -6.96251 0.134405 0.318461 -0.275583
274 O 19.3664 19.6452 10.9356 -12.0956 1.26804 3.65823 -0.550465 0.969389 -1.54641
275 C 19.3926 18.4085 11.6209 -2.47846 -3.83662 8.87113 -0.964064 1.51396 1.82356
276 C 18.0146 17.9733 11.9965 -1.75917 -5.1188 -0.478439 0.613765 -2.17518 0.85926
277 O 17.2706 17.4218 10.8854 8.08308 -3.59891 4.35816 -2.48171 0.250709 0.07516
278 C 18.0519 16.8907 13.1093 4.36286 -4.93621 4.68213 0.470925 -0.478935 -0.332758
279 H 18.6779 19.5897 10.2041 8.5646 -29.6548 -4.02804 0.651868 0.351672 0.465469
280 H 19.9163 17.6836 11.1013 32.6116 15.2842 38.1296 1.24547 -1.76309 -1.08822
281 H 19.8597 18.6849 12.5761 -9.91274 24.0374 -6.17405 0.356231 -0.54022 -0.0904624
282 H 17.5121 18.779 12.4548 -13.2082 -1.30245 15.5171 -0.813943 1.00502 -0.0309712
283 H 16.2737 17.4045 11.1987 -11.0276 -16.6763 -7.09594 2.17593 0.0330361 -0.69423
284 H 18.0962 15.8489 12.7396 -2.77706 25.3629 4.40264 0.173152 0.292481 -0.317521
285 H 18.887 17.0265 13.7993 5.57985 -12.6602 7.43009 -0.059062 0.172487 0.173437
286 H 17.1146 16.9521 13.6196 -6.09183 14.4987 -13.0961 -0.50078 0.149751 0.759869
287 O 1.17372 4.82952 7.79636 3.94311 0.216626 2.00501 -0.613075 -0.296543 0.556072
288 C 1.37485 5.41618 9.11094 -7.07597 -2.66263 -2.11277 -0.393017 -0.149925 0.688585
289 C 1.90676 4.50883 10.2496 5.80218 8.91788 -3.8722 0.0800017 -0.550539 -0.326988
290 O 3.21721 4.01782 9.9215 -0.724472 4.00231 -2.13314 0.763494 -0.716903 -0.423512
291 C 1.88597 5.13381 11.6508 -6.05622 -1.58715 0.809553 1.18887 -0.135963 -1.17482
292 H 1.85792 4.15208 7.76047 -7.79155 4.42808 10.5888 0.530828 -0.694187 -0.453812
293 H 2.11156 6.16113 8.911 29.9808 -14.096 12.465 0.453352 1.2103 0.490695
294 H 0.428623 5.83352 9.48171 9.16784 14.297 -9.17266 0.310677 0.21648 -0.501844
295 H 1.31086 3.60846 10.3334 -0.42368 5.53512 8.98959 -0.527451 -0.432649 -0.303734
296 H 3.8576 4.75706 9.98302 -25.0196 -18.4898 1.28152 0.41713 0.439409 0.00450394
297 H 0.867128 5.37992 11.7149 -11.0656 -19.4385 -17.4104 -1.34783 0.755019 1.06945
298 H 2.22366 4.40075 12.3905 -9.61171 15.2591 -5.85308 -0.253023 0.114931 -0.0386993
299 H 2.53943 6.0091 11.6628 -25.182 16.0868 -2.06505 -0.0988625 0.256759 0.171852
300 O 0.0769454 15.277 4.47357 6.68024 7.32833 -4.19894 1.5738 0.585761 0.673149
301 C 1.10749 15.2982 3.4415 -12.3127 -1.37713 0.566901 1.36642 0.417933 0.784004
302 C 1.93889 13.9855 3.2685 -2.28917 0.646987 -0.204333 -3.13056 1.11196 -1.18202
303 O 0.797 13.0786 2.9557 -6.60921 0.775177 0.434386 0.389872 -0.205746 0.299501
304 C 2.82257 14.1431 2.00443 -0.131997 -0.059888 -5.26819 0.0843546 0.293071 2.14482
305 H -0.726621 14.9337 4.10842 7.24252 10.0984 8.55187 -1.30228 -0.746918 -0.825089
306 H 0.664573 15.5908 2.5137 15.1157 15.1916 19.4982 -0.39884 -0.0639573 -0.816
307 H 1.8117 16.0899 3.70007 3.62435 16.9521 10.1686 -0.0333226 0.281989 0.277836
308 H 2.3096 13.6815 4.23033 14.2318 0.7084 14.4933 0.958885 -0.230102 0.210582
309 H 1.22426 12.4452 2.36229 -14.0264 1.96303 -1.6911 -0.200794 -1.23796 -0.605416
310 H 3.47531 13.2986 1.88373 -2.48613 -12.6626 -25.7498 0.285716 -0.607994 -0.216518
311 H 2.17998 14.2682 1.14461 -5.88426 8.11609 4.35704 0.000479819 0.212011 -0.251816
312 H 3.45528 15.0007 2.23917 -7.71933 -2.37422 -14.7018 0.0928225 0.282619 -0.590215
313 O 15.5522 2.40595 19.0284 -4.99298 2.00134 1.62009 -0.889888 1.07213 -0.321543
314 C 15.6029 1.16998 19.7598 -1.98522 -1.1823 0.88291 3.09398 0.980193 0.738022
315 C 15.0498 0.0398882 19.0065 -5.13439 1.48303 -1.57266 0.119347 -2.19657 0.131226
316 O 15.9372 -0.0998537 17.8547 -6.2592 -3.92266 -2.40248 1.22094 0.24175 0.22862
317 C 14.9716 -1.31629 19.9043 -4.94871 2.44833 0.238155 0.980345 0.504853 -2.23895
318 H 15.8883 2.31257 18.1082 -9.8634 -11.0434 5.46518 -0.0741783 -0.11976 0.0342453
319 H 16.7343 1.02777 19.9953 3.41457 -9.82063 -12.3483 -1.46904 -0.355091 -0.00363819
320 H 15.098 1.41486 20.6772 0.144657 8.10609 -15.7411 -0.481048 -0.400662 0.554006
321 H 14.1012 0.343101 18.6043 -27.2082 -0.0312383 -16.7218 -0.983141 -0.118457 0.0499054
322 H 15.6522 -0.679957 17.1135 -4.84953 -4.61826 24.6781 -0.778639 -0.344433 -0.311703
323 H 14.8987 -2.16887 19.1954 1.02847 9.75227 3.04318 -0.404352 0.308127 0.337778
324 H 15.9173 -1.53014 20.4268 -9.91421 -18.1324 13.0819 -0.247515 0.65284 0.150692
325 H 14.1176 -1.26275 20.5496 -3.54604 -0.926736 -0.149409 -0.430627 -0.0116513 0.527571
326 O 10.9277 18.5872 5.13561 3.70081 0.497472 -3.888 -0.703067 0.649374 0.547111
327 C 10.8941 17.5576 4.11143 -6.93614 -3.93955 -1.30779 -1.13616 0.864237 -0.509528
328 C 10.98 18.2128 2.68075 3.67319 -6.43231 3.03664 1.242 -0.679831 1.05143
329 O 12.1964 19.0521 2.58654 1.38824 0.685614 -2.66698 -1.9338 0.268227 -2.93798
330 C 10.9826 17.2312 1.56541 -2.26914 -0.602886 0.970931 -0.294484 -0.61852 -0.72883
331 H 9.97876 18.8457 5.41141 -19.6204 -16.1194 24.0651 1.07324 -0.423332 -0.558778
332 H 11.7169 16.8914 4.29514 15.4715 -2.29128 -1.7825 0.471861 -0.465986 -0.0987977
333 H 9.93364 17.0162 4.22392 -23.1369 -8.10407 -26.6739 0.313196 -0.0682067 -0.322264
334 H 10.151 18.8494 2.57076 16.4227 -6.64993 20.9627 -1.20191 1.10516 0.00663355
335 H 12.5737 18.9271 3.41021 -10.3387 -4.62561 18.7653 2.22483 -0.0855068 3.10257
336 H 11.0049 17.6966 0.599635 -15.5201 4.53924 -13.2891 -0.112152 0.784855 -0.5592
337 H 11.832 16.5781 1.51883 -1.56748 -8.00977 -34.5319 0.591969 -0.595664 0.637147
338 H 10.0691 16.6599 1.57192 17.9447 -11.8389 -17.47 -0.441764 -0.590877 0.224622
339 O 17.6184 8.18627 4.75621 -3.34877 5.43955 -4.25165 0.168947 0.640453 -0.107138
340 C 18.4634 7.27071 4.11446 -4.59094 10.5732 2.18057 1.39187 -2.14673 -0.897867
341 C 19.3116 6.36294 5.09529 3.91986 -7.27372 -0.95038 0.0138394 -0.186377 -0.67427
342 O 18.3774 5.94826 6.10839 7.50942 -8.07954 0.530895 0.109798 -0.140953 1.33368
343 C 19.8851 5.1125 4.42205 -0.838795 -1.0258 3.67357 -1.60137 -0.808288 -2.51689
344 H 16.9823 7.68485 5.28102 -9.28823 20.1011 0.829964 -0.841413 -0.445517 0.485365
345 H 17.958 6.58385 3.36534 12.6394 3.34264 -6.32373 -0.0610094 0.763983 0.823065
346 H 19.2091 7.80922 3.56833 17.1703 6.97294 12.3261 0.477068 0.786592 -0.597027
347 H 20.2427 6.87177 5.43833 -30.3938 2.56886 -13.1386 -0.911862 0.394702 0.562501
348 H 18.4609 6.52583 6.90947 14.5881 36.0548 7.56245 -0.0645202 -0.103945 -0.238299
349 H 20.0547 5.24075 3.33181 -18.3462 22.2219 -39.2851 0.0171493 0.658833 0.121397
350 H 20.8341 4.77776 4.73758 -0.722213 7.20082 -14.4372 0.924909 -0.354577 1.12119
351 H 19.1839 4.24002 4.32733 -7.22584 -23.5485 33.4866 0.17946 0.546385 0.832575
352 O 8.25762 6.3139 16.0707 -2.26387 0.277655 -2.76138 0.531317 0.836011 -0.261967
353 C 7.47293 7.52843 16.2143 -0.529664 5.9604 -1.37804 -0.00803471 -0.259124 2.03141
354 C 6.02027 7.2218 16.0124 -2.86596 3.8815 3.76359 -0.122497 -0.917944 -0.964692
355 O 5.58707 6.35112 17.1103 -4.72821 4.03023 3.32667 -0.461191 0.404933 0.316763
356 C 5.19156 8.51175 15.826 -0.473692 4.86926 6.50344 3.10731 -0.140691 -0.245927
357 H 7.91826 5.64174 16.6827 -13.8364 14.1092 -15.9864 -0.454502 -0.479608 0.289027